<?xml version="1.0" encoding="UTF-8"?>

<!-- generated on 2022-01-17 23:18:57 by Eclipse SUMO sumo Version 1.11.0
<configuration xmlns:xsi="http://www.w3.org/2001/XMLSchema-instance" xsi:noNamespaceSchemaLocation="http://sumo.dlr.de/xsd/sumoConfiguration.xsd">

    <input>
        <net-file value="in_use_files/number_2.net.xml"/>
        <route-files value="in_use_files/number_2.rou.xml"/>
    </input>

    <output>
        <summary-output value="in_use_files/sum_number_2.xml"/>
        <tripinfo-output value="in_use_files/tripinfo_number_2.xml"/>
    </output>

    <time>
        <end value="900"/>
    </time>

    <processing>
        <time-to-teleport value="-1"/>
    </processing>

    <report>
        <no-warnings value="true"/>
    </report>

    <traci_server>
        <remote-port value="50094"/>
    </traci_server>

    <gui_only>
        <gui-settings-file value="in_use_files/flick.cfg"/>
        <quit-on-end value="true"/>
        <start value="true"/>
    </gui_only>

</configuration>
-->

<tripinfos xmlns:xsi="http://www.w3.org/2001/XMLSchema-instance" xsi:noNamespaceSchemaLocation="http://sumo.dlr.de/xsd/tripinfo_file.xsd">
    <tripinfo id="flow14c.0" depart="0.00" departLane="end1_junction_2" departPos="5.10" departSpeed="0.00" departDelay="0.00" arrival="76.00" arrivalLane="junction_end4_0" arrivalPos="486.40" arrivalSpeed="13.57" duration="76.00" routeLength="976.73" waitingTime="0.00" waitingCount="0" stopTime="0.00" timeLoss="8.13" rerouteNo="0" devices="tripinfo_flow14c.0 routing_flow14c.0" vType="car1" speedFactor="1.06" vaporized=""/>
    <tripinfo id="flow14t.0" depart="0.00" departLane="end1_junction_1" departPos="7.20" departSpeed="0.00" departDelay="0.00" arrival="84.00" arrivalLane="junction_end4_0" arrivalPos="486.40" arrivalSpeed="13.13" duration="84.00" routeLength="974.63" waitingTime="0.00" waitingCount="0" stopTime="0.00" timeLoss="9.90" rerouteNo="0" devices="tripinfo_flow14t.0 routing_flow14t.0" vType="truck1" speedFactor="0.97" vaporized=""/>
    <tripinfo id="flow21c.0" depart="4.00" departLane="end2_junction_1" departPos="5.10" departSpeed="0.00" departDelay="0.00" arrival="87.00" arrivalLane="junction_end1_0" arrivalPos="486.40" arrivalSpeed="12.91" duration="83.00" routeLength="976.73" waitingTime="0.00" waitingCount="0" stopTime="0.00" timeLoss="7.28" rerouteNo="0" devices="tripinfo_flow21c.0 routing_flow21c.0" vType="car1" speedFactor="0.94" vaporized=""/>
    <tripinfo id="flow21t.0" depart="4.00" departLane="end2_junction_2" departPos="7.20" departSpeed="0.00" departDelay="0.00" arrival="89.00" arrivalLane="junction_end1_0" arrivalPos="486.40" arrivalSpeed="13.37" duration="85.00" routeLength="974.63" waitingTime="0.00" waitingCount="0" stopTime="0.00" timeLoss="11.53" rerouteNo="0" devices="tripinfo_flow21t.0 routing_flow21t.0" vType="truck1" speedFactor="0.97" vaporized=""/>
    <tripinfo id="flow24c.0" depart="13.00" departLane="end2_junction_1" departPos="5.10" departSpeed="0.00" departDelay="4.00" arrival="89.00" arrivalLane="junction_end4_1" arrivalPos="486.40" arrivalSpeed="13.90" duration="76.00" routeLength="994.90" waitingTime="0.00" waitingCount="0" stopTime="0.00" timeLoss="6.20" rerouteNo="0" devices="tripinfo_flow24c.0 routing_flow24c.0" vType="car1" speedFactor="1.04" vaporized=""/>
    <tripinfo id="flow32c.0" depart="8.00" departLane="end3_junction_0" departPos="5.10" departSpeed="0.00" departDelay="1.00" arrival="90.00" arrivalLane="junction_end2_0" arrivalPos="486.40" arrivalSpeed="13.26" duration="82.00" routeLength="976.73" waitingTime="0.00" waitingCount="0" stopTime="0.00" timeLoss="10.87" rerouteNo="0" devices="tripinfo_flow32c.0 routing_flow32c.0" vType="car1" speedFactor="1.01" vaporized=""/>
    <tripinfo id="flow14c.1" depart="2.00" departLane="end1_junction_0" departPos="5.10" departSpeed="0.00" departDelay="1.00" arrival="91.00" arrivalLane="junction_end4_0" arrivalPos="486.40" arrivalSpeed="11.29" duration="89.00" routeLength="976.73" waitingTime="0.00" waitingCount="0" stopTime="0.00" timeLoss="8.66" rerouteNo="0" devices="tripinfo_flow14c.1 routing_flow14c.1" vType="car1" speedFactor="0.89" vaporized=""/>
    <tripinfo id="flow21c.2" depart="15.00" departLane="end2_junction_2" departPos="5.10" departSpeed="0.00" departDelay="4.00" arrival="93.00" arrivalLane="junction_end1_1" arrivalPos="486.40" arrivalSpeed="14.62" duration="78.00" routeLength="976.73" waitingTime="0.00" waitingCount="0" stopTime="0.00" timeLoss="12.88" rerouteNo="0" devices="tripinfo_flow21c.2 routing_flow21c.2" vType="car1" speedFactor="1.10" vaporized=""/>
    <tripinfo id="flow42c.1" depart="10.00" departLane="end4_junction_0" departPos="5.10" departSpeed="0.00" departDelay="4.00" arrival="94.00" arrivalLane="junction_end2_0" arrivalPos="486.40" arrivalSpeed="12.36" duration="84.00" routeLength="994.90" waitingTime="0.00" waitingCount="0" stopTime="0.00" timeLoss="6.89" rerouteNo="0" devices="tripinfo_flow42c.1 routing_flow42c.1" vType="car1" speedFactor="0.93" vaporized=""/>
    <tripinfo id="flow14t.1" depart="10.00" departLane="end1_junction_1" departPos="7.20" departSpeed="0.00" departDelay="4.00" arrival="95.00" arrivalLane="junction_end4_0" arrivalPos="486.40" arrivalSpeed="13.20" duration="85.00" routeLength="974.63" waitingTime="0.00" waitingCount="0" stopTime="0.00" timeLoss="11.11" rerouteNo="0" devices="tripinfo_flow14t.1 routing_flow14t.1" vType="truck1" speedFactor="0.96" vaporized=""/>
    <tripinfo id="flow21c.1" depart="10.00" departLane="end2_junction_1" departPos="5.10" departSpeed="0.00" departDelay="0.00" arrival="98.00" arrivalLane="junction_end1_0" arrivalPos="486.40" arrivalSpeed="11.38" duration="88.00" routeLength="976.73" waitingTime="0.00" waitingCount="0" stopTime="0.00" timeLoss="8.61" rerouteNo="0" devices="tripinfo_flow21c.1 routing_flow21c.1" vType="car1" speedFactor="0.90" vaporized=""/>
    <tripinfo id="flow43c.0" depart="7.00" departLane="end4_junction_2" departPos="5.10" departSpeed="0.00" departDelay="4.00" arrival="99.00" arrivalLane="junction_end3_1" arrivalPos="486.40" arrivalSpeed="11.98" duration="92.00" routeLength="976.73" waitingTime="0.00" waitingCount="0" stopTime="0.00" timeLoss="15.15" rerouteNo="0" devices="tripinfo_flow43c.0 routing_flow43c.0" vType="car1" speedFactor="0.93" vaporized=""/>
    <tripinfo id="flow43c.1" depart="8.00" departLane="end4_junction_1" departPos="5.10" departSpeed="0.00" departDelay="3.00" arrival="99.00" arrivalLane="junction_end3_0" arrivalPos="486.40" arrivalSpeed="11.83" duration="91.00" routeLength="976.73" waitingTime="0.00" waitingCount="0" stopTime="0.00" timeLoss="9.09" rerouteNo="0" devices="tripinfo_flow43c.1 routing_flow43c.1" vType="car1" speedFactor="0.87" vaporized=""/>
    <tripinfo id="flow21c.4" depart="29.00" departLane="end2_junction_2" departPos="5.10" departSpeed="0.00" departDelay="2.00" arrival="101.00" arrivalLane="junction_end1_0" arrivalPos="486.40" arrivalSpeed="15.56" duration="72.00" routeLength="976.73" waitingTime="0.00" waitingCount="0" stopTime="0.00" timeLoss="11.69" rerouteNo="0" devices="tripinfo_flow21c.4 routing_flow21c.4" vType="car1" speedFactor="1.18" vaporized=""/>
</tripinfos>
