<?xml version="1.0" encoding="UTF-8"?>

<!-- generated on 2022-01-17 21:52:28 by Eclipse SUMO GUI Version 1.11.0
<configuration xmlns:xsi="http://www.w3.org/2001/XMLSchema-instance" xsi:noNamespaceSchemaLocation="http://sumo.dlr.de/xsd/sumoConfiguration.xsd">

    <input>
        <net-file value="in_use_files/test.net.xml"/>
        <route-files value="in_use_files/test.rou.xml"/>
    </input>

    <output>
        <summary-output value="in_use_files/sum_test.xml"/>
        <tripinfo-output value="in_use_files/tripinfo_test.xml"/>
    </output>

    <time>
        <end value="900"/>
    </time>

    <processing>
        <time-to-teleport value="-1"/>
    </processing>

    <report>
        <no-warnings value="true"/>
    </report>

    <traci_server>
        <remote-port value="64136"/>
    </traci_server>

    <gui_only>
        <gui-settings-file value="in_use_files/flick.cfg"/>
        <quit-on-end value="true"/>
        <start value="true"/>
    </gui_only>

</configuration>
-->

<tripinfos xmlns:xsi="http://www.w3.org/2001/XMLSchema-instance" xsi:noNamespaceSchemaLocation="http://sumo.dlr.de/xsd/tripinfo_file.xsd">
    <tripinfo id="flow14c.0" depart="0.00" departLane="end1_junction_2" departPos="5.10" departSpeed="0.00" departDelay="0.00" arrival="75.00" arrivalLane="junction_end4_0" arrivalPos="486.40" arrivalSpeed="14.70" duration="75.00" routeLength="976.73" waitingTime="0.00" waitingCount="0" stopTime="0.00" timeLoss="7.59" rerouteNo="0" devices="tripinfo_flow14c.0 routing_flow14c.0" vType="car1" speedFactor="1.06" vaporized=""/>
    <tripinfo id="flow32t.1" depart="2.00" departLane="end3_junction_2" departPos="7.20" departSpeed="0.00" departDelay="0.00" arrival="80.00" arrivalLane="junction_end2_0" arrivalPos="486.40" arrivalSpeed="14.22" duration="78.00" routeLength="974.63" waitingTime="0.00" waitingCount="0" stopTime="0.00" timeLoss="10.24" rerouteNo="0" devices="tripinfo_flow32t.1 routing_flow32t.1" vType="truck1" speedFactor="1.05" vaporized=""/>
    <tripinfo id="flow24c.0" depart="10.00" departLane="end2_junction_1" departPos="5.10" departSpeed="0.00" departDelay="1.00" arrival="80.00" arrivalLane="junction_end4_0" arrivalPos="486.40" arrivalSpeed="16.28" duration="70.00" routeLength="994.90" waitingTime="0.00" waitingCount="0" stopTime="0.00" timeLoss="8.53" rerouteNo="0" devices="tripinfo_flow24c.0 routing_flow24c.0" vType="car1" speedFactor="1.18" vaporized=""/>
    <tripinfo id="flow21c.0" depart="4.00" departLane="end2_junction_1" departPos="5.10" departSpeed="0.00" departDelay="0.00" arrival="84.00" arrivalLane="junction_end1_0" arrivalPos="486.40" arrivalSpeed="13.67" duration="80.00" routeLength="976.73" waitingTime="0.00" waitingCount="0" stopTime="0.00" timeLoss="8.13" rerouteNo="0" devices="tripinfo_flow21c.0 routing_flow21c.0" vType="car1" speedFactor="0.99" vaporized=""/>
    <tripinfo id="flow43c.0" depart="5.00" departLane="end4_junction_0" departPos="5.10" departSpeed="0.00" departDelay="0.00" arrival="84.00" arrivalLane="junction_end3_0" arrivalPos="486.40" arrivalSpeed="13.52" duration="79.00" routeLength="976.73" waitingTime="0.00" waitingCount="0" stopTime="0.00" timeLoss="8.11" rerouteNo="0" devices="tripinfo_flow43c.0 routing_flow43c.0" vType="car1" speedFactor="1.01" vaporized=""/>
    <tripinfo id="flow14t.0" depart="0.00" departLane="end1_junction_1" departPos="7.20" departSpeed="0.00" departDelay="0.00" arrival="86.00" arrivalLane="junction_end4_0" arrivalPos="486.40" arrivalSpeed="13.03" duration="86.00" routeLength="974.63" waitingTime="0.00" waitingCount="0" stopTime="0.00" timeLoss="12.75" rerouteNo="0" devices="tripinfo_flow14t.0 routing_flow14t.0" vType="truck1" speedFactor="0.97" vaporized=""/>
    <tripinfo id="flow32t.2" depart="11.00" departLane="end3_junction_2" departPos="7.20" departSpeed="0.00" departDelay="4.00" arrival="88.00" arrivalLane="junction_end2_1" arrivalPos="486.40" arrivalSpeed="14.68" duration="77.00" routeLength="974.63" waitingTime="0.00" waitingCount="0" stopTime="0.00" timeLoss="11.28" rerouteNo="0" devices="tripinfo_flow32t.2 routing_flow32t.2" vType="truck1" speedFactor="1.09" vaporized=""/>
    <tripinfo id="flow32t.0" depart="1.00" departLane="end3_junction_1" departPos="7.20" departSpeed="0.00" departDelay="0.00" arrival="89.00" arrivalLane="junction_end2_0" arrivalPos="486.40" arrivalSpeed="12.33" duration="88.00" routeLength="974.63" waitingTime="0.00" waitingCount="0" stopTime="0.00" timeLoss="10.72" rerouteNo="0" devices="tripinfo_flow32t.0 routing_flow32t.0" vType="truck1" speedFactor="0.92" vaporized=""/>
    <tripinfo id="flow21t.0" depart="5.00" departLane="end2_junction_2" departPos="7.20" departSpeed="0.00" departDelay="1.00" arrival="90.00" arrivalLane="junction_end1_0" arrivalPos="486.40" arrivalSpeed="13.34" duration="85.00" routeLength="974.63" waitingTime="0.00" waitingCount="0" stopTime="0.00" timeLoss="11.32" rerouteNo="0" devices="tripinfo_flow21t.0 routing_flow21t.0" vType="truck1" speedFactor="0.96" vaporized=""/>
    <tripinfo id="flow42c.2" depart="11.00" departLane="end4_junction_0" departPos="5.10" departSpeed="0.00" departDelay="4.00" arrival="90.00" arrivalLane="junction_end2_2" arrivalPos="486.40" arrivalSpeed="15.23" duration="79.00" routeLength="994.90" waitingTime="0.00" waitingCount="0" stopTime="0.00" timeLoss="16.34" rerouteNo="0" devices="tripinfo_flow42c.2 routing_flow42c.2" vType="car1" speedFactor="1.15" vaporized=""/>
    <tripinfo id="flow14t.1" depart="7.00" departLane="end1_junction_2" departPos="7.20" departSpeed="0.00" departDelay="1.00" arrival="94.00" arrivalLane="junction_end4_0" arrivalPos="486.40" arrivalSpeed="13.53" duration="87.00" routeLength="974.63" waitingTime="0.00" waitingCount="0" stopTime="0.00" timeLoss="14.73" rerouteNo="0" devices="tripinfo_flow14t.1 routing_flow14t.1" vType="truck1" speedFactor="0.99" vaporized=""/>
    <tripinfo id="flow42c.3" depart="16.00" departLane="end4_junction_1" departPos="5.10" departSpeed="0.00" departDelay="8.00" arrival="94.00" arrivalLane="junction_end2_1" arrivalPos="486.40" arrivalSpeed="13.95" duration="78.00" routeLength="994.90" waitingTime="0.00" waitingCount="0" stopTime="0.00" timeLoss="7.48" rerouteNo="0" devices="tripinfo_flow42c.3 routing_flow42c.3" vType="car1" speedFactor="1.02" vaporized=""/>
    <tripinfo id="flow42c.0" depart="4.00" departLane="end4_junction_2" departPos="5.10" departSpeed="0.00" departDelay="0.00" arrival="95.00" arrivalLane="junction_end2_0" arrivalPos="486.40" arrivalSpeed="11.10" duration="91.00" routeLength="994.90" waitingTime="0.00" waitingCount="0" stopTime="0.00" timeLoss="8.91" rerouteNo="0" devices="tripinfo_flow42c.0 routing_flow42c.0" vType="car1" speedFactor="0.88" vaporized=""/>
    <tripinfo id="flow42c.1" depart="8.00" departLane="end4_junction_2" departPos="5.10" departSpeed="0.00" departDelay="2.00" arrival="95.00" arrivalLane="junction_end2_1" arrivalPos="486.40" arrivalSpeed="11.52" duration="87.00" routeLength="994.90" waitingTime="0.00" waitingCount="0" stopTime="0.00" timeLoss="8.50" rerouteNo="0" devices="tripinfo_flow42c.1 routing_flow42c.1" vType="car1" speedFactor="0.92" vaporized=""/>
    <tripinfo id="flow43c.1" depart="10.00" departLane="end4_junction_1" departPos="5.10" departSpeed="0.00" departDelay="4.00" arrival="95.00" arrivalLane="junction_end3_0" arrivalPos="486.40" arrivalSpeed="12.95" duration="85.00" routeLength="976.73" waitingTime="0.00" waitingCount="0" stopTime="0.00" timeLoss="9.86" rerouteNo="0" devices="tripinfo_flow43c.1 routing_flow43c.1" vType="car1" speedFactor="0.95" vaporized=""/>
    <tripinfo id="flow42c.4" depart="14.00" departLane="end4_junction_2" departPos="5.10" departSpeed="0.00" departDelay="3.00" arrival="97.00" arrivalLane="junction_end2_0" arrivalPos="486.40" arrivalSpeed="13.19" duration="83.00" routeLength="994.90" waitingTime="0.00" waitingCount="0" stopTime="0.00" timeLoss="10.54" rerouteNo="0" devices="tripinfo_flow42c.4 routing_flow42c.4" vType="car1" speedFactor="1.00" vaporized=""/>
    <tripinfo id="flow21c.1" depart="12.00" departLane="end2_junction_2" departPos="5.10" departSpeed="0.00" departDelay="2.00" arrival="101.00" arrivalLane="junction_end1_0" arrivalPos="486.40" arrivalSpeed="11.35" duration="89.00" routeLength="976.73" waitingTime="0.00" waitingCount="0" stopTime="0.00" timeLoss="9.97" rerouteNo="0" devices="tripinfo_flow21c.1 routing_flow21c.1" vType="car1" speedFactor="0.90" vaporized=""/>
    <tripinfo id="flow14t.2" depart="13.00" departLane="end1_junction_0" departPos="7.20" departSpeed="0.00" departDelay="0.00" arrival="101.00" arrivalLane="junction_end4_0" arrivalPos="486.40" arrivalSpeed="12.25" duration="88.00" routeLength="974.63" waitingTime="0.00" waitingCount="0" stopTime="0.00" timeLoss="11.17" rerouteNo="0" devices="tripinfo_flow14t.2 routing_flow14t.2" vType="truck1" speedFactor="0.93" vaporized=""/>
    <tripinfo id="flow21c.2" depart="27.00" departLane="end2_junction_2" departPos="5.10" departSpeed="0.00" departDelay="3.00" arrival="105.00" arrivalLane="junction_end1_0" arrivalPos="486.40" arrivalSpeed="13.75" duration="78.00" routeLength="976.73" waitingTime="0.00" waitingCount="0" stopTime="0.00" timeLoss="8.64" rerouteNo="0" devices="tripinfo_flow21c.2 routing_flow21c.2" vType="car1" speedFactor="1.02" vaporized=""/>
    <tripinfo id="flow21c.3" depart="27.00" departLane="end2_junction_0" departPos="5.10" departSpeed="0.00" departDelay="0.00" arrival="107.00" arrivalLane="junction_end1_0" arrivalPos="486.40" arrivalSpeed="14.36" duration="80.00" routeLength="976.73" waitingTime="0.00" waitingCount="0" stopTime="0.00" timeLoss="13.53" rerouteNo="0" devices="tripinfo_flow21c.3 routing_flow21c.3" vType="car1" speedFactor="1.07" vaporized=""/>
    <tripinfo id="flow12c.1" depart="14.00" departLane="end1_junction_1" departPos="5.10" departSpeed="0.00" departDelay="0.00" arrival="122.00" arrivalLane="junction_end2_0" arrivalPos="486.40" arrivalSpeed="13.41" duration="108.00" routeLength="992.21" waitingTime="21.00" waitingCount="1" stopTime="0.00" timeLoss="35.34" rerouteNo="0" devices="tripinfo_flow12c.1 routing_flow12c.1" vType="car1" speedFactor="1.00" vaporized=""/>
    <tripinfo id="flow34t.0" depart="5.00" departLane="end3_junction_1" departPos="7.20" departSpeed="0.00" departDelay="0.00" arrival="123.00" arrivalLane="junction_end4_1" arrivalPos="486.40" arrivalSpeed="13.77" duration="118.00" routeLength="990.11" waitingTime="25.00" waitingCount="1" stopTime="0.00" timeLoss="46.70" rerouteNo="0" devices="tripinfo_flow34t.0 routing_flow34t.0" vType="truck1" speedFactor="1.01" vaporized=""/>
    <tripinfo id="flow12c.0" depart="3.00" departLane="end1_junction_0" departPos="5.10" departSpeed="0.00" departDelay="1.00" arrival="124.00" arrivalLane="junction_end2_0" arrivalPos="486.40" arrivalSpeed="11.90" duration="121.00" routeLength="992.21" waitingTime="28.00" waitingCount="1" stopTime="0.00" timeLoss="39.46" rerouteNo="0" devices="tripinfo_flow12c.0 routing_flow12c.0" vType="car1" speedFactor="0.89" vaporized=""/>
    <tripinfo id="flow34c.0" depart="3.00" departLane="end3_junction_0" departPos="5.10" departSpeed="0.00" departDelay="1.00" arrival="126.00" arrivalLane="junction_end4_0" arrivalPos="486.40" arrivalSpeed="11.19" duration="123.00" routeLength="992.21" waitingTime="27.00" waitingCount="1" stopTime="0.00" timeLoss="38.19" rerouteNo="0" devices="tripinfo_flow34c.0 routing_flow34c.0" vType="car1" speedFactor="0.86" vaporized=""/>
    <tripinfo id="flow14c.1" depart="27.00" departLane="end1_junction_2" departPos="5.10" departSpeed="0.00" departDelay="0.00" arrival="128.00" arrivalLane="junction_end4_0" arrivalPos="486.40" arrivalSpeed="12.40" duration="101.00" routeLength="976.73" waitingTime="0.00" waitingCount="0" stopTime="0.00" timeLoss="27.21" rerouteNo="0" devices="tripinfo_flow14c.1 routing_flow14c.1" vType="car1" speedFactor="0.97" vaporized=""/>
    <tripinfo id="flow14t.3" depart="30.00" departLane="end1_junction_1" departPos="7.20" departSpeed="0.00" departDelay="3.00" arrival="130.00" arrivalLane="junction_end4_0" arrivalPos="486.40" arrivalSpeed="13.15" duration="100.00" routeLength="974.63" waitingTime="0.00" waitingCount="0" stopTime="0.00" timeLoss="27.13" rerouteNo="0" devices="tripinfo_flow14t.3 routing_flow14t.3" vType="truck1" speedFactor="0.98" vaporized=""/>
    <tripinfo id="flow41c.0" depart="1.00" departLane="end4_junction_1" departPos="5.10" departSpeed="0.00" departDelay="0.00" arrival="133.00" arrivalLane="junction_end1_0" arrivalPos="486.40" arrivalSpeed="13.26" duration="132.00" routeLength="992.21" waitingTime="51.00" waitingCount="1" stopTime="0.00" timeLoss="63.12" rerouteNo="0" devices="tripinfo_flow41c.0 routing_flow41c.0" vType="car1" speedFactor="1.05" vaporized=""/>
    <tripinfo id="flow23c.0" depart="0.00" departLane="end2_junction_2" departPos="5.10" departSpeed="0.00" departDelay="0.00" arrival="134.00" arrivalLane="junction_end3_0" arrivalPos="486.40" arrivalSpeed="12.84" duration="134.00" routeLength="992.21" waitingTime="53.00" waitingCount="1" stopTime="0.00" timeLoss="62.77" rerouteNo="0" devices="tripinfo_flow23c.0 routing_flow23c.0" vType="car1" speedFactor="1.01" vaporized=""/>
    <tripinfo id="flow41c.3" depart="11.00" departLane="end4_junction_2" departPos="5.10" departSpeed="0.00" departDelay="0.00" arrival="134.00" arrivalLane="junction_end1_2" arrivalPos="486.40" arrivalSpeed="14.83" duration="123.00" routeLength="992.21" waitingTime="42.00" waitingCount="1" stopTime="0.00" timeLoss="56.58" rerouteNo="0" devices="tripinfo_flow41c.3 routing_flow41c.3" vType="car1" speedFactor="1.09" vaporized=""/>
    <tripinfo id="flow23t.0" depart="5.00" departLane="end2_junction_0" departPos="7.20" departSpeed="0.00" departDelay="2.00" arrival="139.00" arrivalLane="junction_end3_0" arrivalPos="486.40" arrivalSpeed="13.73" duration="134.00" routeLength="990.11" waitingTime="47.00" waitingCount="1" stopTime="0.00" timeLoss="63.34" rerouteNo="0" devices="tripinfo_flow23t.0 routing_flow23t.0" vType="truck1" speedFactor="1.02" vaporized=""/>
    <tripinfo id="flow41c.1" depart="7.00" departLane="end4_junction_1" departPos="5.10" departSpeed="0.00" departDelay="1.00" arrival="145.00" arrivalLane="junction_end1_0" arrivalPos="486.40" arrivalSpeed="11.09" duration="138.00" routeLength="992.21" waitingTime="40.00" waitingCount="1" stopTime="0.00" timeLoss="55.31" rerouteNo="0" devices="tripinfo_flow41c.1 routing_flow41c.1" vType="car1" speedFactor="0.87" vaporized=""/>
    <tripinfo id="flow32t.3" depart="15.00" departLane="end3_junction_0" departPos="7.20" departSpeed="0.00" departDelay="5.00" arrival="145.00" arrivalLane="junction_end2_1" arrivalPos="486.40" arrivalSpeed="13.98" duration="130.00" routeLength="974.63" waitingTime="0.00" waitingCount="0" stopTime="0.00" timeLoss="59.45" rerouteNo="0" devices="tripinfo_flow32t.3 routing_flow32t.3" vType="truck1" speedFactor="1.02" vaporized=""/>
    <tripinfo id="flow32c.0" depart="11.00" departLane="end3_junction_0" departPos="5.10" departSpeed="0.00" departDelay="4.00" arrival="146.00" arrivalLane="junction_end2_0" arrivalPos="486.40" arrivalSpeed="12.60" duration="135.00" routeLength="976.73" waitingTime="0.00" waitingCount="0" stopTime="0.00" timeLoss="58.19" rerouteNo="0" devices="tripinfo_flow32c.0 routing_flow32c.0" vType="car1" speedFactor="0.93" vaporized=""/>
    <tripinfo id="flow13c.0" depart="3.00" departLane="end1_junction_2" departPos="5.10" departSpeed="0.00" departDelay="0.00" arrival="148.00" arrivalLane="junction_end3_0" arrivalPos="486.40" arrivalSpeed="13.44" duration="145.00" routeLength="994.90" waitingTime="62.00" waitingCount="1" stopTime="0.00" timeLoss="74.50" rerouteNo="0" devices="tripinfo_flow13c.0 routing_flow13c.0" vType="car1" speedFactor="1.03" vaporized=""/>
    <tripinfo id="flow32t.5" depart="28.00" departLane="end3_junction_1" departPos="7.20" departSpeed="0.00" departDelay="6.00" arrival="148.00" arrivalLane="junction_end2_1" arrivalPos="486.40" arrivalSpeed="13.66" duration="120.00" routeLength="974.63" waitingTime="0.00" waitingCount="0" stopTime="0.00" timeLoss="49.39" rerouteNo="0" devices="tripinfo_flow32t.5 routing_flow32t.5" vType="truck1" speedFactor="1.01" vaporized=""/>
    <tripinfo id="flow21t.1" depart="50.00" departLane="end2_junction_0" departPos="7.20" departSpeed="0.00" departDelay="15.00" arrival="149.00" arrivalLane="junction_end1_1" arrivalPos="486.40" arrivalSpeed="14.26" duration="99.00" routeLength="974.63" waitingTime="0.00" waitingCount="0" stopTime="0.00" timeLoss="31.24" rerouteNo="0" devices="tripinfo_flow21t.1 routing_flow21t.1" vType="truck1" speedFactor="1.06" vaporized=""/>
    <tripinfo id="flow31t.0" depart="6.00" departLane="end3_junction_2" departPos="7.20" departSpeed="0.00" departDelay="1.00" arrival="150.00" arrivalLane="junction_end1_0" arrivalPos="486.40" arrivalSpeed="14.88" duration="144.00" routeLength="992.80" waitingTime="58.00" waitingCount="1" stopTime="0.00" timeLoss="77.70" rerouteNo="0" devices="tripinfo_flow31t.0 routing_flow31t.0" vType="truck1" speedFactor="1.08" vaporized=""/>
    <tripinfo id="flow13c.1" depart="6.00" departLane="end1_junction_0" departPos="5.10" departSpeed="0.00" departDelay="1.00" arrival="154.00" arrivalLane="junction_end3_0" arrivalPos="486.40" arrivalSpeed="12.64" duration="148.00" routeLength="994.90" waitingTime="59.00" waitingCount="1" stopTime="0.00" timeLoss="71.32" rerouteNo="0" devices="tripinfo_flow13c.1 routing_flow13c.1" vType="car1" speedFactor="0.94" vaporized=""/>
    <tripinfo id="flow31t.1" depart="18.00" departLane="end3_junction_1" departPos="7.20" departSpeed="0.00" departDelay="3.00" arrival="155.00" arrivalLane="junction_end1_0" arrivalPos="486.40" arrivalSpeed="13.25" duration="137.00" routeLength="992.80" waitingTime="37.00" waitingCount="2" stopTime="0.00" timeLoss="63.68" rerouteNo="0" devices="tripinfo_flow31t.1 routing_flow31t.1" vType="truck1" speedFactor="0.98" vaporized=""/>
    <tripinfo id="flow13t.1" depart="5.00" departLane="end1_junction_1" departPos="7.20" departSpeed="0.00" departDelay="0.00" arrival="156.00" arrivalLane="junction_end3_1" arrivalPos="486.40" arrivalSpeed="12.97" duration="151.00" routeLength="992.80" waitingTime="58.00" waitingCount="1" stopTime="0.00" timeLoss="76.75" rerouteNo="0" devices="tripinfo_flow13t.1 routing_flow13t.1" vType="truck1" speedFactor="0.97" vaporized=""/>
    <tripinfo id="flow21c.4" depart="54.00" departLane="end2_junction_0" departPos="5.10" departSpeed="0.00" departDelay="13.00" arrival="159.00" arrivalLane="junction_end1_0" arrivalPos="486.40" arrivalSpeed="12.32" duration="105.00" routeLength="976.73" waitingTime="0.00" waitingCount="0" stopTime="0.00" timeLoss="27.81" rerouteNo="0" devices="tripinfo_flow21c.4 routing_flow21c.4" vType="car1" speedFactor="0.93" vaporized=""/>
    <tripinfo id="flow14t.4" depart="38.00" departLane="end1_junction_1" departPos="7.20" departSpeed="0.00" departDelay="0.00" arrival="160.00" arrivalLane="junction_end4_0" arrivalPos="486.40" arrivalSpeed="12.92" duration="122.00" routeLength="974.63" waitingTime="0.00" waitingCount="0" stopTime="0.00" timeLoss="49.37" rerouteNo="0" devices="tripinfo_flow14t.4 routing_flow14t.4" vType="truck1" speedFactor="0.98" vaporized=""/>
    <tripinfo id="flow14c.3" depart="47.00" departLane="end1_junction_1" departPos="5.10" departSpeed="0.00" departDelay="0.00" arrival="160.00" arrivalLane="junction_end4_1" arrivalPos="486.40" arrivalSpeed="13.85" duration="113.00" routeLength="976.73" waitingTime="0.00" waitingCount="0" stopTime="0.00" timeLoss="47.40" rerouteNo="0" devices="tripinfo_flow14c.3 routing_flow14c.3" vType="car1" speedFactor="1.09" vaporized=""/>
    <tripinfo id="flow32t.7" depart="31.00" departLane="end3_junction_0" departPos="7.20" departSpeed="0.00" departDelay="6.00" arrival="161.00" arrivalLane="junction_end2_0" arrivalPos="486.40" arrivalSpeed="13.76" duration="130.00" routeLength="974.63" waitingTime="0.00" waitingCount="0" stopTime="0.00" timeLoss="61.05" rerouteNo="0" devices="tripinfo_flow32t.7 routing_flow32t.7" vType="truck1" speedFactor="1.03" vaporized=""/>
    <tripinfo id="flow14t.5" depart="47.00" departLane="end1_junction_0" departPos="7.20" departSpeed="0.00" departDelay="6.00" arrival="163.00" arrivalLane="junction_end4_0" arrivalPos="486.40" arrivalSpeed="13.97" duration="116.00" routeLength="974.63" waitingTime="0.00" waitingCount="0" stopTime="0.00" timeLoss="46.95" rerouteNo="0" devices="tripinfo_flow14t.5 routing_flow14t.5" vType="truck1" speedFactor="1.04" vaporized=""/>
    <tripinfo id="flow32t.6" depart="32.00" departLane="end3_junction_1" departPos="7.20" departSpeed="0.00" departDelay="9.00" arrival="164.00" arrivalLane="junction_end2_0" arrivalPos="486.40" arrivalSpeed="13.88" duration="132.00" routeLength="974.63" waitingTime="1.00" waitingCount="1" stopTime="0.00" timeLoss="61.99" rerouteNo="0" devices="tripinfo_flow32t.6 routing_flow32t.6" vType="truck1" speedFactor="1.02" vaporized=""/>
    <tripinfo id="flow14c.4" depart="52.00" departLane="end1_junction_0" departPos="5.10" departSpeed="0.00" departDelay="1.00" arrival="168.00" arrivalLane="junction_end4_0" arrivalPos="486.40" arrivalSpeed="13.14" duration="116.00" routeLength="976.73" waitingTime="0.00" waitingCount="0" stopTime="0.00" timeLoss="42.65" rerouteNo="0" devices="tripinfo_flow14c.4 routing_flow14c.4" vType="car1" speedFactor="0.97" vaporized=""/>
    <tripinfo id="flow32t.4" depart="25.00" departLane="end3_junction_2" departPos="7.20" departSpeed="0.00" departDelay="8.00" arrival="169.00" arrivalLane="junction_end2_0" arrivalPos="486.40" arrivalSpeed="13.14" duration="144.00" routeLength="974.63" waitingTime="0.00" waitingCount="0" stopTime="0.00" timeLoss="68.80" rerouteNo="0" devices="tripinfo_flow32t.4 routing_flow32t.4" vType="truck1" speedFactor="0.95" vaporized=""/>
    <tripinfo id="flow32c.1" depart="40.00" departLane="end3_junction_0" departPos="5.10" departSpeed="0.00" departDelay="7.00" arrival="169.00" arrivalLane="junction_end2_2" arrivalPos="486.40" arrivalSpeed="13.37" duration="129.00" routeLength="976.73" waitingTime="2.00" waitingCount="1" stopTime="0.00" timeLoss="59.13" rerouteNo="0" devices="tripinfo_flow32c.1 routing_flow32c.1" vType="car1" speedFactor="1.02" vaporized=""/>
    <tripinfo id="flow14t.7" depart="57.00" departLane="end1_junction_1" departPos="7.20" departSpeed="0.00" departDelay="1.00" arrival="170.00" arrivalLane="junction_end4_1" arrivalPos="486.40" arrivalSpeed="13.31" duration="113.00" routeLength="974.63" waitingTime="0.00" waitingCount="0" stopTime="0.00" timeLoss="41.43" rerouteNo="0" devices="tripinfo_flow14t.7 routing_flow14t.7" vType="truck1" speedFactor="1.00" vaporized=""/>
    <tripinfo id="flow43c.2" depart="45.00" departLane="end4_junction_0" departPos="5.10" departSpeed="0.00" departDelay="8.00" arrival="171.00" arrivalLane="junction_end3_1" arrivalPos="486.40" arrivalSpeed="14.66" duration="126.00" routeLength="976.73" waitingTime="0.00" waitingCount="0" stopTime="0.00" timeLoss="61.87" rerouteNo="0" devices="tripinfo_flow43c.2 routing_flow43c.2" vType="car1" speedFactor="1.12" vaporized=""/>
    <tripinfo id="flow14t.6" depart="48.00" departLane="end1_junction_2" departPos="7.20" departSpeed="0.00" departDelay="5.00" arrival="172.00" arrivalLane="junction_end4_1" arrivalPos="486.40" arrivalSpeed="14.56" duration="124.00" routeLength="974.63" waitingTime="0.00" waitingCount="0" stopTime="0.00" timeLoss="56.70" rerouteNo="0" devices="tripinfo_flow14t.6 routing_flow14t.6" vType="truck1" speedFactor="1.06" vaporized=""/>
    <tripinfo id="flow14t.9" depart="70.00" departLane="end1_junction_0" departPos="7.20" departSpeed="0.00" departDelay="9.00" arrival="176.00" arrivalLane="junction_end4_0" arrivalPos="486.40" arrivalSpeed="13.31" duration="106.00" routeLength="974.63" waitingTime="0.00" waitingCount="0" stopTime="0.00" timeLoss="33.66" rerouteNo="0" devices="tripinfo_flow14t.9 routing_flow14t.9" vType="truck1" speedFactor="0.98" vaporized=""/>
    <tripinfo id="flow43t.0" depart="42.00" departLane="end4_junction_1" departPos="7.20" departSpeed="0.00" departDelay="14.00" arrival="178.00" arrivalLane="junction_end3_1" arrivalPos="486.40" arrivalSpeed="12.90" duration="136.00" routeLength="974.63" waitingTime="0.00" waitingCount="0" stopTime="0.00" timeLoss="62.37" rerouteNo="0" devices="tripinfo_flow43t.0 routing_flow43t.0" vType="truck1" speedFactor="0.96" vaporized=""/>
    <tripinfo id="flow24c.1" depart="20.00" departLane="end2_junction_1" departPos="5.10" departSpeed="0.00" departDelay="0.00" arrival="180.00" arrivalLane="junction_end4_0" arrivalPos="486.40" arrivalSpeed="12.35" duration="160.00" routeLength="994.90" waitingTime="72.00" waitingCount="1" stopTime="0.00" timeLoss="84.50" rerouteNo="0" devices="tripinfo_flow24c.1 routing_flow24c.1" vType="car1" speedFactor="0.96" vaporized=""/>
    <tripinfo id="flow14c.5" depart="80.00" departLane="end1_junction_1" departPos="5.10" departSpeed="0.00" departDelay="15.00" arrival="182.00" arrivalLane="junction_end4_2" arrivalPos="486.40" arrivalSpeed="13.23" duration="102.00" routeLength="976.73" waitingTime="0.00" waitingCount="0" stopTime="0.00" timeLoss="32.57" rerouteNo="0" devices="tripinfo_flow14c.5 routing_flow14c.5" vType="car1" speedFactor="1.04" vaporized=""/>
    <tripinfo id="flow14c.8" depart="83.00" departLane="end1_junction_2" departPos="5.10" departSpeed="0.00" departDelay="9.00" arrival="182.00" arrivalLane="junction_end4_1" arrivalPos="486.40" arrivalSpeed="13.35" duration="99.00" routeLength="976.73" waitingTime="0.00" waitingCount="0" stopTime="0.00" timeLoss="25.33" rerouteNo="0" devices="tripinfo_flow14c.8 routing_flow14c.8" vType="car1" speedFactor="0.97" vaporized=""/>
    <tripinfo id="flow21c.5" depart="62.00" departLane="end2_junction_1" departPos="5.10" departSpeed="0.00" departDelay="19.00" arrival="183.00" arrivalLane="junction_end1_1" arrivalPos="486.40" arrivalSpeed="14.31" duration="121.00" routeLength="976.73" waitingTime="0.00" waitingCount="0" stopTime="0.00" timeLoss="53.09" rerouteNo="0" devices="tripinfo_flow21c.5 routing_flow21c.5" vType="car1" speedFactor="1.05" vaporized=""/>
    <tripinfo id="flow42c.6" depart="19.00" departLane="end4_junction_0" departPos="5.10" departSpeed="0.00" departDelay="4.00" arrival="184.00" arrivalLane="junction_end2_1" arrivalPos="486.40" arrivalSpeed="14.29" duration="165.00" routeLength="994.90" waitingTime="28.00" waitingCount="1" stopTime="0.00" timeLoss="98.15" rerouteNo="0" devices="tripinfo_flow42c.6 routing_flow42c.6" vType="car1" speedFactor="1.08" vaporized=""/>
    <tripinfo id="flow21c.7" depart="75.00" departLane="end2_junction_1" departPos="5.10" departSpeed="0.00" departDelay="10.00" arrival="184.00" arrivalLane="junction_end1_2" arrivalPos="486.40" arrivalSpeed="14.38" duration="109.00" routeLength="976.73" waitingTime="0.00" waitingCount="0" stopTime="0.00" timeLoss="44.46" rerouteNo="0" devices="tripinfo_flow21c.7 routing_flow21c.7" vType="car1" speedFactor="1.11" vaporized=""/>
    <tripinfo id="flow24t.0" depart="18.00" departLane="end2_junction_2" departPos="7.20" departSpeed="0.00" departDelay="6.00" arrival="185.00" arrivalLane="junction_end4_0" arrivalPos="486.40" arrivalSpeed="13.20" duration="167.00" routeLength="992.80" waitingTime="71.00" waitingCount="1" stopTime="0.00" timeLoss="90.91" rerouteNo="0" devices="tripinfo_flow24t.0 routing_flow24t.0" vType="truck1" speedFactor="0.95" vaporized=""/>
    <tripinfo id="flow42c.8" depart="30.00" departLane="end4_junction_0" departPos="5.10" departSpeed="0.00" departDelay="8.00" arrival="185.00" arrivalLane="junction_end2_2" arrivalPos="486.40" arrivalSpeed="15.00" duration="155.00" routeLength="994.90" waitingTime="28.00" waitingCount="1" stopTime="0.00" timeLoss="91.70" rerouteNo="0" devices="tripinfo_flow42c.8 routing_flow42c.8" vType="car1" speedFactor="1.15" vaporized=""/>
    <tripinfo id="flow21c.6" depart="59.00" departLane="end2_junction_1" departPos="5.10" departSpeed="0.00" departDelay="8.00" arrival="186.00" arrivalLane="junction_end1_1" arrivalPos="486.40" arrivalSpeed="11.37" duration="127.00" routeLength="976.73" waitingTime="0.00" waitingCount="0" stopTime="0.00" timeLoss="48.04" rerouteNo="0" devices="tripinfo_flow21c.6 routing_flow21c.6" vType="car1" speedFactor="0.90" vaporized=""/>
    <tripinfo id="flow14c.7" depart="80.00" departLane="end1_junction_2" departPos="5.10" departSpeed="0.00" departDelay="7.00" arrival="187.00" arrivalLane="junction_end4_1" arrivalPos="486.40" arrivalSpeed="12.56" duration="107.00" routeLength="976.73" waitingTime="1.00" waitingCount="1" stopTime="0.00" timeLoss="33.41" rerouteNo="0" devices="tripinfo_flow14c.7 routing_flow14c.7" vType="car1" speedFactor="0.97" vaporized=""/>
    <tripinfo id="flow43b.0" depart="0.00" departLane="end4_junction_2" departPos="1.70" departSpeed="0.00" departDelay="0.00" arrival="189.00" arrivalLane="junction_end3_0" arrivalPos="486.40" arrivalSpeed="5.06" duration="189.00" routeLength="980.13" waitingTime="0.00" waitingCount="0" stopTime="0.00" timeLoss="12.43" rerouteNo="0" devices="tripinfo_flow43b.0 routing_flow43b.0" vType="bike1" speedFactor="1.03" vaporized=""/>
    <tripinfo id="flow14c.2" depart="32.00" departLane="end1_junction_2" departPos="5.10" departSpeed="0.00" departDelay="1.00" arrival="189.00" arrivalLane="junction_end4_0" arrivalPos="486.40" arrivalSpeed="13.87" duration="157.00" routeLength="976.73" waitingTime="22.00" waitingCount="2" stopTime="0.00" timeLoss="85.01" rerouteNo="0" devices="tripinfo_flow14c.2 routing_flow14c.2" vType="car1" speedFactor="1.00" vaporized=""/>