<?xml version="1.0" encoding="UTF-8"?>

<!-- generated on 2022-01-17 23:18:57 by Eclipse SUMO sumo Version 1.11.0
<configuration xmlns:xsi="http://www.w3.org/2001/XMLSchema-instance" xsi:noNamespaceSchemaLocation="http://sumo.dlr.de/xsd/sumoConfiguration.xsd">

    <input>
        <net-file value="in_use_files/number_1.net.xml"/>
        <route-files value="in_use_files/number_1.rou.xml"/>
    </input>

    <output>
        <summary-output value="in_use_files/sum_number_1.xml"/>
        <tripinfo-output value="in_use_files/tripinfo_number_1.xml"/>
    </output>

    <time>
        <end value="900"/>
    </time>

    <processing>
        <time-to-teleport value="-1"/>
    </processing>

    <report>
        <no-warnings value="true"/>
    </report>

    <traci_server>
        <remote-port value="50091"/>
    </traci_server>

    <gui_only>
        <gui-settings-file value="in_use_files/flick.cfg"/>
        <quit-on-end value="true"/>
        <start value="true"/>
    </gui_only>

</configuration>
-->

<tripinfos xmlns:xsi="http://www.w3.org/2001/XMLSchema-instance" xsi:noNamespaceSchemaLocation="http://sumo.dlr.de/xsd/tripinfo_file.xsd">
    <tripinfo id="flow14c.0" depart="0.00" departLane="end1_junction_2" departPos="5.10" departSpeed="0.00" departDelay="0.00" arrival="76.00" arrivalLane="junction_end4_0" arrivalPos="486.40" arrivalSpeed="14.22" duration="76.00" routeLength="976.73" waitingTime="0.00" waitingCount="0" stopTime="0.00" timeLoss="8.39" rerouteNo="0" devices="tripinfo_flow14c.0 routing_flow14c.0" vType="car1" speedFactor="1.06" vaporized=""/>
    <tripinfo id="flow24c.0" depart="7.00" departLane="end2_junction_2" departPos="5.10" departSpeed="0.00" departDelay="0.00" arrival="77.00" arrivalLane="junction_end4_1" arrivalPos="486.40" arrivalSpeed="15.48" duration="70.00" routeLength="994.90" waitingTime="0.00" waitingCount="0" stopTime="0.00" timeLoss="6.33" rerouteNo="0" devices="tripinfo_flow24c.0 routing_flow24c.0" vType="car1" speedFactor="1.13" vaporized=""/>
    <tripinfo id="flow21c.0" depart="3.00" departLane="end2_junction_0" departPos="5.10" departSpeed="0.00" departDelay="0.00" arrival="80.00" arrivalLane="junction_end1_0" arrivalPos="486.40" arrivalSpeed="13.35" duration="77.00" routeLength="976.73" waitingTime="0.00" waitingCount="0" stopTime="0.00" timeLoss="8.37" rerouteNo="0" devices="tripinfo_flow21c.0 routing_flow21c.0" vType="car1" speedFactor="1.05" vaporized=""/>
    <tripinfo id="flow43c.0" depart="8.00" departLane="end4_junction_2" departPos="5.10" departSpeed="0.00" departDelay="5.00" arrival="83.00" arrivalLane="junction_end3_0" arrivalPos="486.40" arrivalSpeed="14.92" duration="75.00" routeLength="976.73" waitingTime="0.00" waitingCount="0" stopTime="0.00" timeLoss="11.66" rerouteNo="0" devices="tripinfo_flow43c.0 routing_flow43c.0" vType="car1" speedFactor="1.12" vaporized=""/>
    <tripinfo id="flow24c.1" depart="10.00" departLane="end2_junction_2" departPos="5.10" departSpeed="0.00" departDelay="1.00" arrival="83.00" arrivalLane="junction_end4_1" arrivalPos="486.40" arrivalSpeed="14.34" duration="73.00" routeLength="994.90" waitingTime="0.00" waitingCount="0" stopTime="0.00" timeLoss="7.09" rerouteNo="0" devices="tripinfo_flow24c.1 routing_flow24c.1" vType="car1" speedFactor="1.10" vaporized=""/>
    <tripinfo id="flow14t.0" depart="0.00" departLane="end1_junction_1" departPos="7.20" departSpeed="0.00" departDelay="0.00" arrival="84.00" arrivalLane="junction_end4_0" arrivalPos="486.40" arrivalSpeed="12.95" duration="84.00" routeLength="974.63" waitingTime="0.00" waitingCount="0" stopTime="0.00" timeLoss="10.67" rerouteNo="0" devices="tripinfo_flow14t.0 routing_flow14t.0" vType="truck1" speedFactor="0.97" vaporized=""/>
    <tripinfo id="flow42t.0" depart="2.00" departLane="end4_junction_0" departPos="7.20" departSpeed="0.00" departDelay="1.00" arrival="84.00" arrivalLane="junction_end2_0" arrivalPos="486.40" arrivalSpeed="13.44" duration="82.00" routeLength="992.80" waitingTime="0.00" waitingCount="0" stopTime="0.00" timeLoss="7.92" rerouteNo="0" devices="tripinfo_flow42t.0 routing_flow42t.0" vType="truck1" speedFactor="0.97" vaporized=""/>
    <tripinfo id="flow14t.1" depart="3.00" departLane="end1_junction_2" departPos="7.20" departSpeed="0.00" departDelay="1.00" arrival="85.00" arrivalLane="junction_end4_1" arrivalPos="486.40" arrivalSpeed="13.97" duration="82.00" routeLength="974.63" waitingTime="0.00" waitingCount="0" stopTime="0.00" timeLoss="13.14" rerouteNo="0" devices="tripinfo_flow14t.1 routing_flow14t.1" vType="truck1" speedFactor="1.05" vaporized=""/>
    <tripinfo id="flow24c.2" depart="19.00" departLane="end2_junction_0" departPos="5.10" departSpeed="0.00" departDelay="5.00" arrival="87.00" arrivalLane="junction_end4_1" arrivalPos="486.40" arrivalSpeed="15.28" duration="68.00" routeLength="994.90" waitingTime="0.00" waitingCount="0" stopTime="0.00" timeLoss="6.22" rerouteNo="0" devices="tripinfo_flow24c.2 routing_flow24c.2" vType="car1" speedFactor="1.17" vaporized=""/>
    <tripinfo id="flow21t.0" depart="4.00" departLane="end2_junction_1" departPos="7.20" departSpeed="0.00" departDelay="0.00" arrival="89.00" arrivalLane="junction_end1_0" arrivalPos="486.40" arrivalSpeed="12.93" duration="85.00" routeLength="974.63" waitingTime="0.00" waitingCount="0" stopTime="0.00" timeLoss="9.32" rerouteNo="0" devices="tripinfo_flow21t.0 routing_flow21t.0" vType="truck1" speedFactor="0.94" vaporized=""/>
    <tripinfo id="flow32t.0" depart="10.00" departLane="end3_junction_2" departPos="7.20" departSpeed="0.00" departDelay="3.00" arrival="89.00" arrivalLane="junction_end2_1" arrivalPos="486.40" arrivalSpeed="15.10" duration="79.00" routeLength="974.63" waitingTime="0.00" waitingCount="0" stopTime="0.00" timeLoss="13.27" rerouteNo="0" devices="tripinfo_flow32t.0 routing_flow32t.0" vType="truck1" speedFactor="1.09" vaporized=""/>
    <tripinfo id="flow14t.2" depart="8.00" departLane="end1_junction_0" departPos="7.20" departSpeed="0.00" departDelay="2.00" arrival="91.00" arrivalLane="junction_end4_0" arrivalPos="486.40" arrivalSpeed="13.21" duration="83.00" routeLength="974.63" waitingTime="0.00" waitingCount="0" stopTime="0.00" timeLoss="10.83" rerouteNo="0" devices="tripinfo_flow14t.2 routing_flow14t.2" vType="truck1" speedFactor="0.99" vaporized=""/>
    <tripinfo id="flow32c.0" depart="7.00" departLane="end3_junction_1" departPos="5.10" departSpeed="0.00" departDelay="0.00" arrival="92.00" arrivalLane="junction_end2_0" arrivalPos="486.40" arrivalSpeed="11.77" duration="85.00" routeLength="976.73" waitingTime="0.00" waitingCount="0" stopTime="0.00" timeLoss="8.29" rerouteNo="0" devices="tripinfo_flow32c.0 routing_flow32c.0" vType="car1" speedFactor="0.93" vaporized=""/>
    <tripinfo id="flow21c.3" depart="15.00" departLane="end2_junction_0" departPos="5.10" departSpeed="0.00" departDelay="4.00" arrival="92.00" arrivalLane="junction_end1_1" arrivalPos="486.40" arrivalSpeed="13.89" duration="77.00" routeLength="976.73" waitingTime="0.00" waitingCount="0" stopTime="0.00" timeLoss="8.50" rerouteNo="0" devices="tripinfo_flow21c.3 routing_flow21c.3" vType="car1" speedFactor="1.04" vaporized=""/>
    <tripinfo id="flow21c.1" depart="7.00" departLane="end2_junction_0" departPos="5.10" departSpeed="0.00" departDelay="3.00" arrival="93.00" arrivalLane="junction_end1_0" arrivalPos="486.40" arrivalSpeed="12.06" duration="86.00" routeLength="976.73" waitingTime="0.00" waitingCount="0" stopTime="0.00" timeLoss="8.88" rerouteNo="0" devices="tripinfo_flow21c.1 routing_flow21c.1" vType="car1" speedFactor="0.93" vaporized=""/>
    <tripinfo id="flow43c.1" depart="13.00" departLane="end4_junction_0" departPos="5.10" departSpeed="0.00" departDelay="8.00" arrival="94.00" arrivalLane="junction_end3_0" arrivalPos="486.40" arrivalSpeed="13.49" duration="81.00" routeLength="976.73" waitingTime="0.00" waitingCount="0" stopTime="0.00" timeLoss="10.46" rerouteNo="0" devices="tripinfo_flow43c.1 routing_flow43c.1" vType="car1" speedFactor="1.02" vaporized=""/>
    <tripinfo id="flow42c.1" depart="10.00" departLane="end4_junction_0" departPos="5.10" departSpeed="0.00" departDelay="3.00" arrival="95.00" arrivalLane="junction_end2_1" arrivalPos="486.40" arrivalSpeed="14.95" duration="85.00" routeLength="994.90" waitingTime="0.00" waitingCount="0" stopTime="0.00" timeLoss="22.26" rerouteNo="0" devices="tripinfo_flow42c.1 routing_flow42c.1" vType="car1" speedFactor="1.15" vaporized=""/>
    <tripinfo id="flow24c.3" depart="20.00" departLane="end2_junction_1" departPos="5.10" departSpeed="0.00" departDelay="0.00" arrival="97.00" arrivalLane="junction_end4_0" arrivalPos="486.40" arrivalSpeed="13.84" duration="77.00" routeLength="994.90" waitingTime="0.00" waitingCount="0" stopTime="0.00" timeLoss="7.21" rerouteNo="0" devices="tripinfo_flow24c.3 routing_flow24c.3" vType="car1" speedFactor="1.04" vaporized=""/>
    <tripinfo id="flow21c.2" depart="13.00" departLane="end2_junction_2" departPos="5.10" departSpeed="0.00" departDelay="3.00" arrival="99.00" arrivalLane="junction_end1_0" arrivalPos="486.40" arrivalSpeed="12.98" duration="86.00" routeLength="976.73" waitingTime="0.00" waitingCount="0" stopTime="0.00" timeLoss="10.94" rerouteNo="0" devices="tripinfo_flow21c.2 routing_flow21c.2" vType="car1" speedFactor="0.96" vaporized=""/>
    <tripinfo id="flow14t.3" depart="13.00" departLane="end1_junction_2" departPos="7.20" departSpeed="0.00" departDelay="0.00" arrival="99.00" arrivalLane="junction_end4_0" arrivalPos="486.40" arrivalSpeed="12.81" duration="86.00" routeLength="974.63" waitingTime="0.00" waitingCount="0" stopTime="0.00" timeLoss="11.19" rerouteNo="0" devices="tripinfo_flow14t.3 routing_flow14t.3" vType="truck1" speedFactor="0.95" vaporized=""/>
    <tripinfo id="flow42c.0" depart="11.00" departLane="end4_junction_1" departPos="5.10" departSpeed="0.00" departDelay="5.00" arrival="102.00" arrivalLane="junction_end2_0" arrivalPos="486.40" arrivalSpeed="11.52" duration="91.00" routeLength="994.90" waitingTime="0.00" waitingCount="0" stopTime="0.00" timeLoss="8.10" rerouteNo="0" devices="tripinfo_flow42c.0 routing_flow42c.0" vType="car1" speedFactor="0.87" vaporized=""/>
    <tripinfo id="flow21c.4" depart="24.00" departLane="end2_junction_1" departPos="5.10" departSpeed="0.00" departDelay="0.00" arrival="104.00" arrivalLane="junction_end1_0" arrivalPos="486.40" arrivalSpeed="13.13" duration="80.00" routeLength="976.73" waitingTime="0.00" waitingCount="0" stopTime="0.00" timeLoss="8.25" rerouteNo="0" devices="tripinfo_flow21c.4 routing_flow21c.4" vType="car1" speedFactor="1.00" vaporized=""/>
    <tripinfo id="flow21c.5" depart="27.00" departLane="end2_junction_2" departPos="5.10" departSpeed="0.00" departDelay="0.00" arrival="104.00" arrivalLane="junction_end1_1" arrivalPos="486.40" arrivalSpeed="14.88" duration="77.00" routeLength="976.73" waitingTime="0.00" waitingCount="0" stopTime="0.00" timeLoss="11.09" rerouteNo="0" devices="tripinfo_flow21c.5 routing_flow21c.5" vType="car1" speedFactor="1.09" vaporized=""/>
    <tripinfo id="flow32c.1" depart="16.00" departLane="end3_junction_0" departPos="5.10" departSpeed="0.00" departDelay="0.00" arrival="110.00" arrivalLane="junction_end2_0" arrivalPos="486.40" arrivalSpeed="11.90" duration="94.00" routeLength="976.73" waitingTime="0.00" waitingCount="0" stopTime="0.00" timeLoss="14.94" rerouteNo="0" devices="tripinfo_flow32c.1 routing_flow32c.1" vType="car1" speedFactor="0.90" vaporized=""/>
    <tripinfo id="flow32c.2" depart="33.00" departLane="end3_junction_0" departPos="5.10" departSpeed="0.00" departDelay="0.00" arrival="113.00" arrivalLane="junction_end2_0" arrivalPos="486.40" arrivalSpeed="13.94" duration="80.00" routeLength="976.73" waitingTime="0.00" waitingCount="0" stopTime="0.00" timeLoss="10.81" rerouteNo="0" devices="tripinfo_flow32c.2 routing_flow32c.2" vType="car1" speedFactor="1.03" vaporized=""/>
    <tripinfo id="flow43c.2" depart="27.00" departLane="end4_junction_1" departPos="5.10" departSpeed="0.00" departDelay="21.00" arrival="114.00" arrivalLane="junction_end3_0" arrivalPos="486.40" arrivalSpeed="12.54" duration="87.00" routeLength="976.73" waitingTime="0.00" waitingCount="0" stopTime="0.00" timeLoss="8.58" rerouteNo="0" devices="tripinfo_flow43c.2 routing_flow43c.2" vType="car1" speedFactor="0.92" vaporized=""/>
    <tripinfo id="flow21c.8" depart="43.00" departLane="end2_junction_1" departPos="5.10" departSpeed="0.00" departDelay="0.00" arrival="116.00" arrivalLane="junction_end1_1" arrivalPos="486.40" arrivalSpeed="14.87" duration="73.00" routeLength="976.73" waitingTime="0.00" waitingCount="0" stopTime="0.00" timeLoss="10.01" rerouteNo="0" devices="tripinfo_flow21c.8 routing_flow21c.8" vType="car1" speedFactor="1.14" vaporized=""/>
    <tripinfo id="flow34c.0" depart="0.00" departLane="end3_junction_0" departPos="5.10" departSpeed="0.00" departDelay="0.00" arrival="117.00" arrivalLane="junction_end4_1" arrivalPos="486.40" arrivalSpeed="14.00" duration="117.00" routeLength="992.21" waitingTime="39.00" waitingCount="1" stopTime="0.00" timeLoss="49.78" rerouteNo="0" devices="tripinfo_flow34c.0 routing_flow34c.0" vType="car1" speedFactor="1.08" vaporized=""/>
    <tripinfo id="flow21c.6" depart="40.00" departLane="end2_junction_1" departPos="5.10" departSpeed="0.00" departDelay="2.00" arrival="117.00" arrivalLane="junction_end1_0" arrivalPos="486.40" arrivalSpeed="13.29" duration="77.00" routeLength="976.73" waitingTime="0.00" waitingCount="0" stopTime="0.00" timeLoss="7.75" rerouteNo="0" devices="tripinfo_flow21c.6 routing_flow21c.6" vType="car1" speedFactor="1.03" vaporized=""/>
    <tripinfo id="flow12t.0" depart="8.00" departLane="end1_junction_2" departPos="7.20" departSpeed="0.00" departDelay="7.00" arrival="121.00" arrivalLane="junction_end2_0" arrivalPos="486.40" arrivalSpeed="13.80" duration="113.00" routeLength="990.11" waitingTime="25.00" waitingCount="1" stopTime="0.00" timeLoss="42.19" rerouteNo="0" devices="tripinfo_flow12t.0 routing_flow12t.0" vType="truck1" speedFactor="1.02" vaporized=""/>
    <tripinfo id="flow34c.1" depart="2.00" departLane="end3_junction_2" departPos="5.10" departSpeed="0.00" departDelay="0.00" arrival="121.00" arrivalLane="junction_end4_0" arrivalPos="486.40" arrivalSpeed="13.72" duration="119.00" routeLength="992.21" waitingTime="37.00" waitingCount="1" stopTime="0.00" timeLoss="48.03" rerouteNo="0" devices="tripinfo_flow34c.1 routing_flow34c.1" vType="car1" speedFactor="1.03" vaporized=""/>
    <tripinfo id="flow34t.0" depart="5.00" departLane="end3_junction_2" departPos="7.20" departSpeed="0.00" departDelay="0.00" arrival="123.00" arrivalLane="junction_end4_1" arrivalPos="486.40" arrivalSpeed="14.73" duration="118.00" routeLength="990.11" waitingTime="33.00" waitingCount="1" stopTime="0.00" timeLoss="51.04" rerouteNo="0" devices="tripinfo_flow34t.0 routing_flow34t.0" vType="truck1" speedFactor="1.08" vaporized=""/>
    <tripinfo id="flow12t.1" depart="12.00" departLane="end1_junction_1" departPos="7.20" departSpeed="0.00" departDelay="7.00" arrival="125.00" arrivalLane="junction_end2_0" arrivalPos="486.40" arrivalSpeed="13.47" duration="113.00" routeLength="990.11" waitingTime="23.00" waitingCount="1" stopTime="0.00" timeLoss="38.07" rerouteNo="0" devices="tripinfo_flow12t.1 routing_flow12t.1" vType="truck1" speedFactor="0.97" vaporized=""/>
    <tripinfo id="flow34t.1" depart="11.00" departLane="end3_junction_1" departPos="7.20" departSpeed="0.00" departDelay="3.00" arrival="125.00" arrivalLane="junction_end4_1" arrivalPos="486.40" arrivalSpeed="14.70" duration="114.00" routeLength="990.11" waitingTime="28.00" waitingCount="1" stopTime="0.00" timeLoss="47.24" rerouteNo="0" devices="tripinfo_flow34t.1 routing_flow34t.1" vType="truck1" speedFactor="1.09" vaporized=""/>
    <tripinfo id="flow12t.3" depart="17.00" departLane="end1_junction_0" departPos="7.20" departSpeed="0.00" departDelay="1.00" arrival="126.00" arrivalLane="junction_end2_1" arrivalPos="486.40" arrivalSpeed="13.57" duration="109.00" routeLength="990.11" waitingTime="19.00" waitingCount="1" stopTime="0.00" timeLoss="36.62" rerouteNo="0" devices="tripinfo_flow12t.3 routing_flow12t.3" vType="truck1" speedFactor="1.00" vaporized=""/>
    <tripinfo id="flow12t.2" depart="18.00" departLane="end1_junction_2" departPos="7.20" departSpeed="0.00" departDelay="12.00" arrival="128.00" arrivalLane="junction_end2_0" arrivalPos="486.40" arrivalSpeed="13.58" duration="110.00" routeLength="990.11" waitingTime="19.00" waitingCount="1" stopTime="0.00" timeLoss="37.61" rerouteNo="0" devices="tripinfo_flow12t.2 routing_flow12t.2" vType="truck1" speedFactor="1.01" vaporized=""/>
    <tripinfo id="flow23c.1" depart="9.00" departLane="end2_junction_1" departPos="5.10" departSpeed="0.00" departDelay="0.00" arrival="132.00" arrivalLane="junction_end3_2" arrivalPos="486.40" arrivalSpeed="15.43" duration="123.00" routeLength="992.21" waitingTime="47.00" waitingCount="1" stopTime="0.00" timeLoss="61.48" rerouteNo="0" devices="tripinfo_flow23c.1 routing_flow23c.1" vType="car1" speedFactor="1.18" vaporized=""/>
    <tripinfo id="flow21c.9" depart="50.00" departLane="end2_junction_1" departPos="5.10" departSpeed="0.00" departDelay="6.00" arrival="133.00" arrivalLane="junction_end1_0" arrivalPos="486.40" arrivalSpeed="12.78" duration="83.00" routeLength="976.73" waitingTime="0.00" waitingCount="0" stopTime="0.00" timeLoss="8.99" rerouteNo="0" devices="tripinfo_flow21c.9 routing_flow21c.9" vType="car1" speedFactor="0.97" vaporized=""/>
    <tripinfo id="flow23c.0" depart="0.00" departLane="end2_junction_2" departPos="5.10" departSpeed="0.00" departDelay="0.00" arrival="134.00" arrivalLane="junction_end3_0" arrivalPos="486.40" arrivalSpeed="13.33" duration="134.00" routeLength="992.21" waitingTime="51.00" waitingCount="1" stopTime="0.00" timeLoss="62.23" rerouteNo="0" devices="tripinfo_flow23c.0 routing_flow23c.0" vType="car1" speedFactor="1.01" vaporized=""/>
    <tripinfo id="flow23c.2" depart="12.00" departLane="end2_junction_1" departPos="5.10" departSpeed="0.00" departDelay="2.00" arrival="135.00" arrivalLane="junction_end3_1" arrivalPos="486.40" arrivalSpeed="15.06" duration="123.00" routeLength="992.21" waitingTime="44.00" waitingCount="1" stopTime="0.00" timeLoss="56.94" rerouteNo="0" devices="tripinfo_flow23c.2 routing_flow23c.2" vType="car1" speedFactor="1.09" vaporized=""/>
    <tripinfo id="flow41t.0" depart="0.00" departLane="end4_junction_2" departPos="7.20" departSpeed="0.00" departDelay="0.00" arrival="136.00" arrivalLane="junction_end1_0" arrivalPos="486.40" arrivalSpeed="13.83" duration="136.00" routeLength="990.11" waitingTime="48.00" waitingCount="1" stopTime="0.00" timeLoss="64.85" rerouteNo="0" devices="tripinfo_flow41t.0 routing_flow41t.0" vType="truck1" speedFactor="1.02" vaporized=""/>
    <tripinfo id="flow14t.8" depart="55.00" departLane="end1_junction_2" departPos="7.20" departSpeed="0.00" departDelay="14.00" arrival="137.00" arrivalLane="junction_end4_0" arrivalPos="486.40" arrivalSpeed="13.84" duration="82.00" routeLength="974.63" waitingTime="0.00" waitingCount="0" stopTime="0.00" timeLoss="10.81" rerouteNo="0" devices="tripinfo_flow14t.8 routing_flow14t.8" vType="truck1" speedFactor="1.01" vaporized=""/>
    <tripinfo id="flow41c.2" depart="8.00" departLane="end4_junction_1" departPos="5.10" departSpeed="0.00" departDelay="0.00" arrival="139.00" arrivalLane="junction_end1_0" arrivalPos="486.40" arrivalSpeed="12.65" duration="131.00" routeLength="992.21" waitingTime="43.00" waitingCount="1" stopTime="0.00" timeLoss="58.43" rerouteNo="0" devices="tripinfo_flow41c.2 routing_flow41c.2" vType="car1" speedFactor="0.99" vaporized=""/>
    <tripinfo id="flow23c.3" depart="22.00" departLane="end2_junction_2" departPos="5.10" departSpeed="0.00" departDelay="0.00" arrival="139.00" arrivalLane="junction_end3_0" arrivalPos="486.40" arrivalSpeed="13.24" duration="117.00" routeLength="992.21" waitingTime="34.00" waitingCount="1" stopTime="0.00" timeLoss="46.70" rerouteNo="0" devices="tripinfo_flow23c.3 routing_flow23c.3" vType="car1" speedFactor="1.03" vaporized=""/>
    <tripinfo id="flow14c.1" depart="29.00" departLane="end1_junction_0" departPos="5.10" departSpeed="0.00" departDelay="2.00" arrival="140.00" arrivalLane="junction_end4_0" arrivalPos="486.40" arrivalSpeed="13.24" duration="111.00" routeLength="976.73" waitingTime="0.00" waitingCount="0" stopTime="0.00" timeLoss="41.30" rerouteNo="0" devices="tripinfo_flow14c.1 routing_flow14c.1" vType="car1" speedFactor="1.02" vaporized=""/>
</tripinfos>
