<?xml version="1.0" encoding="UTF-8"?>

<!-- generated on 2022-01-17 23:18:57 by Eclipse SUMO sumo Version 1.11.0
<configuration xmlns:xsi="http://www.w3.org/2001/XMLSchema-instance" xsi:noNamespaceSchemaLocation="http://sumo.dlr.de/xsd/sumoConfiguration.xsd">

    <input>
        <net-file value="in_use_files/number_0.net.xml"/>
        <route-files value="in_use_files/number_0.rou.xml"/>
    </input>

    <output>
        <summary-output value="in_use_files/sum_number_0.xml"/>
        <tripinfo-output value="in_use_files/tripinfo_number_0.xml"/>
    </output>

    <time>
        <end value="900"/>
    </time>

    <processing>
        <time-to-teleport value="-1"/>
    </processing>

    <report>
        <no-warnings value="true"/>
    </report>

    <traci_server>
        <remote-port value="50089"/>
    </traci_server>

    <gui_only>
        <gui-settings-file value="in_use_files/flick.cfg"/>
        <quit-on-end value="true"/>
        <start value="true"/>
    </gui_only>

</configuration>
-->

<tripinfos xmlns:xsi="http://www.w3.org/2001/XMLSchema-instance" xsi:noNamespaceSchemaLocation="http://sumo.dlr.de/xsd/tripinfo_file.xsd">
    <tripinfo id="flow14t.0" depart="0.00" departLane="end1_junction_2" departPos="7.20" departSpeed="0.00" departDelay="0.00" arrival="80.00" arrivalLane="junction_end4_0" arrivalPos="486.40" arrivalSpeed="13.95" duration="80.00" routeLength="974.63" waitingTime="0.00" waitingCount="0" stopTime="0.00" timeLoss="10.78" rerouteNo="0" devices="tripinfo_flow14t.0 routing_flow14t.0" vType="truck1" speedFactor="1.03" vaporized=""/>
    <tripinfo id="flow43c.0" depart="7.00" departLane="end4_junction_2" departPos="5.10" departSpeed="0.00" departDelay="4.00" arrival="82.00" arrivalLane="junction_end3_0" arrivalPos="486.40" arrivalSpeed="15.00" duration="75.00" routeLength="976.73" waitingTime="0.00" waitingCount="0" stopTime="0.00" timeLoss="11.69" rerouteNo="0" devices="tripinfo_flow43c.0 routing_flow43c.0" vType="car1" speedFactor="1.12" vaporized=""/>
    <tripinfo id="flow14t.1" depart="5.00" departLane="end1_junction_1" departPos="7.20" departSpeed="0.00" departDelay="3.00" arrival="84.00" arrivalLane="junction_end4_0" arrivalPos="486.40" arrivalSpeed="13.98" duration="79.00" routeLength="974.63" waitingTime="0.00" waitingCount="0" stopTime="0.00" timeLoss="11.20" rerouteNo="0" devices="tripinfo_flow14t.1 routing_flow14t.1" vType="truck1" speedFactor="1.05" vaporized=""/>
    <tripinfo id="flow14t.2" depart="6.00" departLane="end1_junction_0" departPos="7.20" departSpeed="0.00" departDelay="0.00" arrival="91.00" arrivalLane="junction_end4_0" arrivalPos="486.40" arrivalSpeed="13.04" duration="85.00" routeLength="974.63" waitingTime="0.00" waitingCount="0" stopTime="0.00" timeLoss="11.07" rerouteNo="0" devices="tripinfo_flow14t.2 routing_flow14t.2" vType="truck1" speedFactor="0.96" vaporized=""/>
    <tripinfo id="flow21c.0" depart="8.00" departLane="end2_junction_0" departPos="5.10" departSpeed="0.00" departDelay="4.00" arrival="93.00" arrivalLane="junction_end1_0" arrivalPos="486.40" arrivalSpeed="12.08" duration="85.00" routeLength="976.73" waitingTime="0.00" waitingCount="0" stopTime="0.00" timeLoss="8.16" rerouteNo="0" devices="tripinfo_flow21c.0 routing_flow21c.0" vType="car1" speedFactor="0.93" vaporized=""/>
    <tripinfo id="flow43c.2" depart="18.00" departLane="end4_junction_0" departPos="5.10" departSpeed="0.00" departDelay="12.00" arrival="93.00" arrivalLane="junction_end3_1" arrivalPos="486.40" arrivalSpeed="15.29" duration="75.00" routeLength="976.73" waitingTime="0.00" waitingCount="0" stopTime="0.00" timeLoss="14.50" rerouteNo="0" devices="tripinfo_flow43c.2 routing_flow43c.2" vType="car1" speedFactor="1.18" vaporized=""/>
    <tripinfo id="flow32c.0" depart="12.00" departLane="end3_junction_2" departPos="5.10" departSpeed="0.00" departDelay="5.00" arrival="94.00" arrivalLane="junction_end2_0" arrivalPos="486.40" arrivalSpeed="13.40" duration="82.00" routeLength="976.73" waitingTime="0.00" waitingCount="0" stopTime="0.00" timeLoss="10.79" rerouteNo="0" devices="tripinfo_flow32c.0 routing_flow32c.0" vType="car1" speedFactor="1.01" vaporized=""/>
    <tripinfo id="flow21t.0" depart="4.00" departLane="end2_junction_1" departPos="7.20" departSpeed="0.00" departDelay="0.00" arrival="95.00" arrivalLane="junction_end1_1" arrivalPos="486.40" arrivalSpeed="12.70" duration="91.00" routeLength="974.63" waitingTime="0.00" waitingCount="0" stopTime="0.00" timeLoss="15.67" rerouteNo="0" devices="tripinfo_flow21t.0 routing_flow21t.0" vType="truck1" speedFactor="0.94" vaporized=""/>
    <tripinfo id="flow32c.2" depart="20.00" departLane="end3_junction_1" departPos="5.10" departSpeed="0.00" departDelay="2.00" arrival="96.00" arrivalLane="junction_end2_0" arrivalPos="486.40" arrivalSpeed="13.56" duration="76.00" routeLength="976.73" waitingTime="0.00" waitingCount="0" stopTime="0.00" timeLoss="8.54" rerouteNo="0" devices="tripinfo_flow32c.2 routing_flow32c.2" vType="car1" speedFactor="1.06" vaporized=""/>
    <tripinfo id="flow43c.1" depart="12.00" departLane="end4_junction_1" departPos="5.10" departSpeed="0.00" departDelay="7.00" arrival="100.00" arrivalLane="junction_end3_0" arrivalPos="486.40" arrivalSpeed="11.37" duration="88.00" routeLength="976.73" waitingTime="0.00" waitingCount="0" stopTime="0.00" timeLoss="8.39" rerouteNo="0" devices="tripinfo_flow43c.1 routing_flow43c.1" vType="car1" speedFactor="0.89" vaporized=""/>
    <tripinfo id="flow14t.3" depart="19.00" departLane="end1_junction_0" departPos="7.20" departSpeed="0.00" departDelay="6.00" arrival="102.00" arrivalLane="junction_end4_0" arrivalPos="486.40" arrivalSpeed="13.37" duration="83.00" routeLength="974.63" waitingTime="0.00" waitingCount="0" stopTime="0.00" timeLoss="11.46" rerouteNo="0" devices="tripinfo_flow14t.3 routing_flow14t.3" vType="truck1" speedFactor="1.01" vaporized=""/>
    <tripinfo id="flow34c.0" depart="0.00" departLane="end3_junction_0" departPos="5.10" departSpeed="0.00" departDelay="0.00" arrival="103.00" arrivalLane="junction_end4_1" arrivalPos="486.40" arrivalSpeed="14.17" duration="103.00" routeLength="992.21" waitingTime="24.00" waitingCount="1" stopTime="0.00" timeLoss="35.77" rerouteNo="0" devices="tripinfo_flow34c.0 routing_flow34c.0" vType="car1" speedFactor="1.08" vaporized=""/>
    <tripinfo id="flow34c.1" depart="3.00" departLane="end3_junction_2" departPos="5.10" departSpeed="0.00" departDelay="1.00" arrival="106.00" arrivalLane="junction_end4_0" arrivalPos="486.40" arrivalSpeed="14.03" duration="103.00" routeLength="992.21" waitingTime="20.00" waitingCount="1" stopTime="0.00" timeLoss="32.65" rerouteNo="0" devices="tripinfo_flow34c.1 routing_flow34c.1" vType="car1" speedFactor="1.03" vaporized=""/>
    <tripinfo id="flow21t.1" depart="19.00" departLane="end2_junction_1" departPos="7.20" departSpeed="0.00" departDelay="1.00" arrival="106.00" arrivalLane="junction_end1_0" arrivalPos="486.40" arrivalSpeed="13.40" duration="87.00" routeLength="974.63" waitingTime="0.00" waitingCount="0" stopTime="0.00" timeLoss="12.88" rerouteNo="0" devices="tripinfo_flow21t.1 routing_flow21t.1" vType="truck1" speedFactor="0.97" vaporized=""/>
    <tripinfo id="flow12t.0" depart="1.00" departLane="end1_junction_1" departPos="7.20" departSpeed="0.00" departDelay="0.00" arrival="107.00" arrivalLane="junction_end2_1" arrivalPos="486.40" arrivalSpeed="13.81" duration="106.00" routeLength="990.11" waitingTime="17.00" waitingCount="1" stopTime="0.00" timeLoss="35.59" rerouteNo="0" devices="tripinfo_flow12t.0 routing_flow12t.0" vType="truck1" speedFactor="1.02" vaporized=""/>
    <tripinfo id="flow32c.1" depart="16.00" departLane="end3_junction_2" departPos="5.10" departSpeed="0.00" departDelay="0.00" arrival="107.00" arrivalLane="junction_end2_0" arrivalPos="486.40" arrivalSpeed="11.10" duration="91.00" routeLength="976.73" waitingTime="0.00" waitingCount="0" stopTime="0.00" timeLoss="9.56" rerouteNo="0" devices="tripinfo_flow32c.1 routing_flow32c.1" vType="car1" speedFactor="0.88" vaporized=""/>
    <tripinfo id="flow34t.1" depart="8.00" departLane="end3_junction_2" departPos="7.20" departSpeed="0.00" departDelay="0.00" arrival="109.00" arrivalLane="junction_end4_1" arrivalPos="486.40" arrivalSpeed="14.83" duration="101.00" routeLength="990.11" waitingTime="15.00" waitingCount="1" stopTime="0.00" timeLoss="34.31" rerouteNo="0" devices="tripinfo_flow34t.1 routing_flow34t.1" vType="truck1" speedFactor="1.09" vaporized=""/>
    <tripinfo id="flow12t.1" depart="5.00" departLane="end1_junction_2" departPos="7.20" departSpeed="0.00" departDelay="0.00" arrival="111.00" arrivalLane="junction_end2_0" arrivalPos="486.40" arrivalSpeed="13.18" duration="106.00" routeLength="990.11" waitingTime="15.00" waitingCount="1" stopTime="0.00" timeLoss="31.30" rerouteNo="0" devices="tripinfo_flow12t.1 routing_flow12t.1" vType="truck1" speedFactor="0.97" vaporized=""/>
    <tripinfo id="flow34t.0" depart="9.00" departLane="end3_junction_1" departPos="7.20" departSpeed="0.00" departDelay="4.00" arrival="113.00" arrivalLane="junction_end4_0" arrivalPos="486.40" arrivalSpeed="13.36" duration="104.00" routeLength="990.11" waitingTime="14.00" waitingCount="1" stopTime="0.00" timeLoss="32.26" rerouteNo="0" devices="tripinfo_flow34t.0 routing_flow34t.0" vType="truck1" speedFactor="1.01" vaporized=""/>
    <tripinfo id="flow12t.2" depart="11.00" departLane="end1_junction_2" departPos="7.20" departSpeed="0.00" departDelay="5.00" arrival="115.00" arrivalLane="junction_end2_0" arrivalPos="486.40" arrivalSpeed="12.53" duration="104.00" routeLength="990.11" waitingTime="10.00" waitingCount="1" stopTime="0.00" timeLoss="26.74" rerouteNo="0" devices="tripinfo_flow12t.2 routing_flow12t.2" vType="truck1" speedFactor="0.94" vaporized=""/>
    <tripinfo id="flow34c.4" depart="22.00" departLane="end3_junction_0" departPos="5.10" departSpeed="0.00" departDelay="0.00" arrival="115.00" arrivalLane="junction_end4_1" arrivalPos="486.40" arrivalSpeed="13.21" duration="93.00" routeLength="992.21" waitingTime="6.00" waitingCount="1" stopTime="0.00" timeLoss="23.26" rerouteNo="0" devices="tripinfo_flow34c.4 routing_flow34c.4" vType="car1" speedFactor="1.04" vaporized=""/>
    <tripinfo id="flow12t.3" depart="13.00" departLane="end1_junction_1" departPos="7.20" departSpeed="0.00" departDelay="2.00" arrival="116.00" arrivalLane="junction_end2_2" arrivalPos="486.40" arrivalSpeed="12.69" duration="103.00" routeLength="990.11" waitingTime="8.00" waitingCount="1" stopTime="0.00" timeLoss="27.32" rerouteNo="0" devices="tripinfo_flow12t.3 routing_flow12t.3" vType="truck1" speedFactor="0.95" vaporized=""/>
    <tripinfo id="flow12t.4" depart="21.00" departLane="end1_junction_2" departPos="7.20" departSpeed="0.00" departDelay="5.00" arrival="117.00" arrivalLane="junction_end2_1" arrivalPos="486.40" arrivalSpeed="13.67" duration="96.00" routeLength="990.11" waitingTime="5.00" waitingCount="1" stopTime="0.00" timeLoss="23.57" rerouteNo="0" devices="tripinfo_flow12t.4 routing_flow12t.4" vType="truck1" speedFactor="0.99" vaporized=""/>
    <tripinfo id="flow32c.4" depart="38.00" departLane="end3_junction_2" departPos="5.10" departSpeed="0.00" departDelay="7.00" arrival="117.00" arrivalLane="junction_end2_0" arrivalPos="486.40" arrivalSpeed="13.00" duration="79.00" routeLength="976.73" waitingTime="0.00" waitingCount="0" stopTime="0.00" timeLoss="8.63" rerouteNo="0" devices="tripinfo_flow32c.4 routing_flow32c.4" vType="car1" speedFactor="1.02" vaporized=""/>
    <tripinfo id="flow12t.6" depart="31.00" departLane="end1_junction_2" departPos="7.20" departSpeed="0.00" departDelay="6.00" arrival="118.00" arrivalLane="junction_end2_2" arrivalPos="486.40" arrivalSpeed="14.58" duration="87.00" routeLength="990.11" waitingTime="0.00" waitingCount="0" stopTime="0.00" timeLoss="19.05" rerouteNo="0" devices="tripinfo_flow12t.6 routing_flow12t.6" vType="truck1" speedFactor="1.06" vaporized=""/>
    <tripinfo id="flow34c.2" depart="24.00" departLane="end3_junction_2" departPos="5.10" departSpeed="0.00" departDelay="16.00" arrival="119.00" arrivalLane="junction_end4_0" arrivalPos="486.40" arrivalSpeed="12.62" duration="95.00" routeLength="992.21" waitingTime="6.00" waitingCount="1" stopTime="0.00" timeLoss="20.28" rerouteNo="0" devices="tripinfo_flow34c.2 routing_flow34c.2" vType="car1" speedFactor="0.97" vaporized=""/>
    <tripinfo id="flow21t.2" depart="36.00" departLane="end2_junction_2" departPos="7.20" departSpeed="0.00" departDelay="1.00" arrival="120.00" arrivalLane="junction_end1_0" arrivalPos="486.40" arrivalSpeed="15.13" duration="84.00" routeLength="974.63" waitingTime="0.00" waitingCount="0" stopTime="0.00" timeLoss="19.47" rerouteNo="0" devices="tripinfo_flow21t.2 routing_flow21t.2" vType="truck1" speedFactor="1.11" vaporized=""/>
    <tripinfo id="flow34t.2" depart="24.00" departLane="end3_junction_1" departPos="7.20" departSpeed="0.00" departDelay="2.00" arrival="122.00" arrivalLane="junction_end4_1" arrivalPos="486.40" arrivalSpeed="13.78" duration="98.00" routeLength="990.11" waitingTime="0.00" waitingCount="0" stopTime="0.00" timeLoss="25.80" rerouteNo="0" devices="tripinfo_flow34t.2 routing_flow34t.2" vType="truck1" speedFactor="1.00" vaporized=""/>
    <tripinfo id="flow12t.7" depart="32.00" departLane="end1_junction_1" departPos="7.20" departSpeed="0.00" departDelay="5.00" arrival="122.00" arrivalLane="junction_end2_1" arrivalPos="486.40" arrivalSpeed="13.19" duration="90.00" routeLength="990.11" waitingTime="0.00" waitingCount="0" stopTime="0.00" timeLoss="16.14" rerouteNo="0" devices="tripinfo_flow12t.7 routing_flow12t.7" vType="truck1" speedFactor="0.98" vaporized=""/>
    <tripinfo id="flow32t.0" depart="18.00" departLane="end3_junction_0" departPos="7.20" departSpeed="0.00" departDelay="11.00" arrival="123.00" arrivalLane="junction_end2_0" arrivalPos="486.40" arrivalSpeed="14.55" duration="105.00" routeLength="974.63" waitingTime="0.00" waitingCount="0" stopTime="0.00" timeLoss="39.38" rerouteNo="0" devices="tripinfo_flow32t.0 routing_flow32t.0" vType="truck1" speedFactor="1.09" vaporized=""/>
    <tripinfo id="flow34c.3" depart="27.00" departLane="end3_junction_0" departPos="5.10" departSpeed="0.00" departDelay="11.00" arrival="124.00" arrivalLane="junction_end4_0" arrivalPos="486.40" arrivalSpeed="12.10" duration="97.00" routeLength="992.21" waitingTime="0.00" waitingCount="0" stopTime="0.00" timeLoss="17.31" rerouteNo="0" devices="tripinfo_flow34c.3 routing_flow34c.3" vType="car1" speedFactor="0.91" vaporized=""/>
    <tripinfo id="flow32c.3" depart="28.00" departLane="end3_junction_1" departPos="5.10" departSpeed="0.00" departDelay="0.00" arrival="125.00" arrivalLane="junction_end2_1" arrivalPos="486.40" arrivalSpeed="14.68" duration="97.00" routeLength="976.73" waitingTime="0.00" waitingCount="0" stopTime="0.00" timeLoss="31.79" rerouteNo="0" devices="tripinfo_flow32c.3 routing_flow32c.3" vType="car1" speedFactor="1.10" vaporized=""/>
    <tripinfo id="flow32c.5" depart="35.00" departLane="end3_junction_0" departPos="5.10" departSpeed="0.00" departDelay="2.00" arrival="127.00" arrivalLane="junction_end2_0" arrivalPos="486.40" arrivalSpeed="15.49" duration="92.00" routeLength="976.73" waitingTime="0.00" waitingCount="0" stopTime="0.00" timeLoss="27.57" rerouteNo="0" devices="tripinfo_flow32c.5 routing_flow32c.5" vType="car1" speedFactor="1.12" vaporized=""/>
    <tripinfo id="flow32c.6" depart="38.00" departLane="end3_junction_0" departPos="5.10" departSpeed="0.00" departDelay="0.00" arrival="131.00" arrivalLane="junction_end2_1" arrivalPos="486.40" arrivalSpeed="15.28" duration="93.00" routeLength="976.73" waitingTime="0.00" waitingCount="0" stopTime="0.00" timeLoss="30.20" rerouteNo="0" devices="tripinfo_flow32c.6 routing_flow32c.6" vType="car1" speedFactor="1.14" vaporized=""/>
    <tripinfo id="flow23c.0" depart="0.00" departLane="end2_junction_1" departPos="5.10" departSpeed="0.00" departDelay="0.00" arrival="132.00" arrivalLane="junction_end3_0" arrivalPos="486.40" arrivalSpeed="12.01" duration="132.00" routeLength="992.21" waitingTime="44.00" waitingCount="1" stopTime="0.00" timeLoss="54.65" rerouteNo="0" devices="tripinfo_flow23c.0 routing_flow23c.0" vType="car1" speedFactor="0.94" vaporized=""/>
    <tripinfo id="flow41t.0" depart="0.00" departLane="end4_junction_2" departPos="7.20" departSpeed="0.00" departDelay="0.00" arrival="132.00" arrivalLane="junction_end1_0" arrivalPos="486.40" arrivalSpeed="13.48" duration="132.00" routeLength="990.11" waitingTime="43.00" waitingCount="1" stopTime="0.00" timeLoss="60.45" rerouteNo="0" devices="tripinfo_flow41t.0 routing_flow41t.0" vType="truck1" speedFactor="1.02" vaporized=""/>
    <tripinfo id="flow23t.0" depart="3.00" departLane="end2_junction_0" departPos="7.20" departSpeed="0.00" departDelay="0.00" arrival="132.00" arrivalLane="junction_end3_1" arrivalPos="486.40" arrivalSpeed="14.17" duration="129.00" routeLength="990.11" waitingTime="41.00" waitingCount="1" stopTime="0.00" timeLoss="58.67" rerouteNo="0" devices="tripinfo_flow23t.0 routing_flow23t.0" vType="truck1" speedFactor="1.02" vaporized=""/>
    <tripinfo id="flow32c.7" depart="47.00" departLane="end3_junction_0" departPos="5.10" departSpeed="0.00" departDelay="0.00" arrival="132.00" arrivalLane="junction_end2_0" arrivalPos="486.40" arrivalSpeed="13.36" duration="85.00" routeLength="976.73" waitingTime="0.00" waitingCount="0" stopTime="0.00" timeLoss="15.72" rerouteNo="0" devices="tripinfo_flow32c.7 routing_flow32c.7" vType="car1" speedFactor="1.03" vaporized=""/>
    <tripinfo id="flow41c.2" depart="10.00" departLane="end4_junction_2" departPos="5.10" departSpeed="0.00" departDelay="4.00" arrival="133.00" arrivalLane="junction_end1_1" arrivalPos="486.40" arrivalSpeed="15.03" duration="123.00" routeLength="992.21" waitingTime="38.00" waitingCount="1" stopTime="0.00" timeLoss="59.12" rerouteNo="0" devices="tripinfo_flow41c.2 routing_flow41c.2" vType="car1" speedFactor="1.13" vaporized=""/>
    <tripinfo id="flow23t.1" depart="10.00" departLane="end2_junction_1" departPos="7.20" departSpeed="0.00" departDelay="0.00" arrival="134.00" arrivalLane="junction_end3_1" arrivalPos="486.40" arrivalSpeed="13.76" duration="124.00" routeLength="990.11" waitingTime="32.00" waitingCount="1" stopTime="0.00" timeLoss="53.49" rerouteNo="0" devices="tripinfo_flow23t.1 routing_flow23t.1" vType="truck1" speedFactor="1.02" vaporized=""/>
    <tripinfo id="flow23t.2" depart="16.00" departLane="end2_junction_2" departPos="7.20" departSpeed="0.00" departDelay="3.00" arrival="136.00" arrivalLane="junction_end3_2" arrivalPos="486.40" arrivalSpeed="14.07" duration="120.00" routeLength="990.11" waitingTime="31.00" waitingCount="1" stopTime="0.00" timeLoss="50.67" rerouteNo="0" devices="tripinfo_flow23t.2 routing_flow23t.2" vType="truck1" speedFactor="1.05" vaporized=""/>
    <tripinfo id="flow41c.0" depart="4.00" departLane="end4_junction_2" departPos="5.10" departSpeed="0.00" departDelay="3.00" arrival="139.00" arrivalLane="junction_end1_0" arrivalPos="486.40" arrivalSpeed="11.56" duration="135.00" routeLength="992.21" waitingTime="39.00" waitingCount="1" stopTime="0.00" timeLoss="53.65" rerouteNo="0" devices="tripinfo_flow41c.0 routing_flow41c.0" vType="car1" speedFactor="0.89" vaporized=""/>
    <tripinfo id="flow41c.1" depart="9.00" departLane="end4_junction_1" departPos="5.10" departSpeed="0.00" departDelay="4.00" arrival="139.00" arrivalLane="junction_end1_1" arrivalPos="486.40" arrivalSpeed="13.12" duration="130.00" routeLength="992.21" waitingTime="37.00" waitingCount="1" stopTime="0.00" timeLoss="55.65" rerouteNo="0" devices="tripinfo_flow41c.1 routing_flow41c.1" vType="car1" speedFactor="0.98" vaporized=""/>
    <tripinfo id="flow41c.3" depart="16.00" departLane="end4_junction_2" departPos="5.10" departSpeed="0.00" departDelay="8.00" arrival="139.00" arrivalLane="junction_end1_2" arrivalPos="486.40" arrivalSpeed="14.65" duration="123.00" routeLength="992.21" waitingTime="37.00" waitingCount="1" stopTime="0.00" timeLoss="56.84" rerouteNo="0" devices="tripinfo_flow41c.3 routing_flow41c.3" vType="car1" speedFactor="1.10" vaporized=""/>
    <tripinfo id="flow23c.1" depart="23.00" departLane="end2_junction_1" departPos="5.10" departSpeed="0.00" departDelay="1.00" arrival="140.00" arrivalLane="junction_end3_0" arrivalPos="486.40" arrivalSpeed="13.21" duration="117.00" routeLength="992.21" waitingTime="28.00" waitingCount="1" stopTime="0.00" timeLoss="44.60" rerouteNo="0" devices="tripinfo_flow23c.1 routing_flow23c.1" vType="car1" speedFactor="1.00" vaporized=""/>
    <tripinfo id="flow14t.5" depart="33.00" departLane="end1_junction_0" departPos="7.20" departSpeed="0.00" departDelay="2.00" arrival="143.00" arrivalLane="junction_end4_0" arrivalPos="486.40" arrivalSpeed="13.86" duration="110.00" routeLength="974.63" waitingTime="0.00" waitingCount="0" stopTime="0.00" timeLoss="39.53" rerouteNo="0" devices="tripinfo_flow14t.5 routing_flow14t.5" vType="truck1" speedFactor="1.02" vaporized=""/>
    <tripinfo id="flow43t.1" depart="46.00" departLane="end4_junction_2" departPos="7.20" departSpeed="0.00" departDelay="25.00" arrival="144.00" arrivalLane="junction_end3_0" arrivalPos="486.40" arrivalSpeed="13.91" duration="98.00" routeLength="974.63" waitingTime="0.00" waitingCount="0" stopTime="0.00" timeLoss="27.64" rerouteNo="0" devices="tripinfo_flow43t.1 routing_flow43t.1" vType="truck1" speedFactor="1.01" vaporized=""/>
    <tripinfo id="flow43c.3" depart="24.00" departLane="end4_junction_0" departPos="5.10" departSpeed="0.00" departDelay="11.00" arrival="146.00" arrivalLane="junction_end3_0" arrivalPos="486.40" arrivalSpeed="11.97" duration="122.00" routeLength="976.73" waitingTime="0.00" waitingCount="0" stopTime="0.00" timeLoss="42.41" rerouteNo="0" devices="tripinfo_flow43c.3 routing_flow43c.3" vType="car1" speedFactor="0.90" vaporized=""/>
    <tripinfo id="flow31t.0" depart="5.00" departLane="end3_junction_1" departPos="7.20" departSpeed="0.00" departDelay="0.00" arrival="151.00" arrivalLane="junction_end1_0" arrivalPos="486.40" arrivalSpeed="13.76" duration="146.00" routeLength="992.80" waitingTime="58.00" waitingCount="1" stopTime="0.00" timeLoss="74.87" rerouteNo="0" devices="tripinfo_flow31t.0 routing_flow31t.0" vType="truck1" speedFactor="1.01" vaporized=""/>
    <tripinfo id="flow13c.0" depart="10.00" departLane="end1_junction_1" departPos="5.10" departSpeed="0.00" departDelay="0.00" arrival="152.00" arrivalLane="junction_end3_2" arrivalPos="486.40" arrivalSpeed="15.17" duration="142.00" routeLength="994.90" waitingTime="58.00" waitingCount="1" stopTime="0.00" timeLoss="76.09" rerouteNo="0" devices="tripinfo_flow13c.0 routing_flow13c.0" vType="car1" speedFactor="1.09" vaporized=""/>
    <tripinfo id="flow13t.0" depart="2.00" departLane="end1_junction_0" departPos="7.20" departSpeed="0.00" departDelay="0.00" arrival="154.00" arrivalLane="junction_end3_0" arrivalPos="486.40" arrivalSpeed="12.81" duration="152.00" routeLength="992.80" waitingTime="59.00" waitingCount="1" stopTime="0.00" timeLoss="74.69" rerouteNo="0" devices="tripinfo_flow13t.0 routing_flow13t.0" vType="truck1" speedFactor="0.93" vaporized=""/>
    <tripinfo id="flow13t.1" depart="10.00" departLane="end1_junction_0" departPos="7.20" departSpeed="0.00" departDelay="5.00" arrival="154.00" arrivalLane="junction_end3_1" arrivalPos="486.40" arrivalSpeed="14.52" duration="144.00" routeLength="992.80" waitingTime="58.00" waitingCount="1" stopTime="0.00" timeLoss="77.09" rerouteNo="0" devices="tripinfo_flow13t.1 routing_flow13t.1" vType="truck1" speedFactor="1.08" vaporized=""/>
    <tripinfo id="flow31c.1" depart="15.00" departLane="end3_junction_0" departPos="5.10" departSpeed="0.00" departDelay="1.00" arrival="155.00" arrivalLane="junction_end1_0" arrivalPos="486.40" arrivalSpeed="12.77" duration="140.00" routeLength="994.90" waitingTime="51.00" waitingCount="1" stopTime="0.00" timeLoss="65.77" rerouteNo="0" devices="tripinfo_flow31c.1 routing_flow31c.1" vType="car1" speedFactor="0.97" vaporized=""/>
    <tripinfo id="flow13t.2" depart="14.00" departLane="end1_junction_0" departPos="7.20" departSpeed="0.00" departDelay="0.00" arrival="156.00" arrivalLane="junction_end3_1" arrivalPos="486.40" arrivalSpeed="14.29" duration="142.00" routeLength="992.80" waitingTime="55.00" waitingCount="1" stopTime="0.00" timeLoss="74.81" rerouteNo="0" devices="tripinfo_flow13t.2 routing_flow13t.2" vType="truck1" speedFactor="1.07" vaporized=""/>
</tripinfos>
