<?xml version="1.0" encoding="UTF-8"?>

<!-- generated on 2022-01-17 23:18:57 by Eclipse SUMO sumo Version 1.11.0
<configuration xmlns:xsi="http://www.w3.org/2001/XMLSchema-instance" xsi:noNamespaceSchemaLocation="http://sumo.dlr.de/xsd/sumoConfiguration.xsd">

    <input>
        <net-file value="in_use_files/number_3.net.xml"/>
        <route-files value="in_use_files/number_3.rou.xml"/>
    </input>

    <output>
        <summary-output value="in_use_files/sum_number_3.xml"/>
        <tripinfo-output value="in_use_files/tripinfo_number_3.xml"/>
    </output>

    <time>
        <end value="900"/>
    </time>

    <processing>
        <time-to-teleport value="-1"/>
    </processing>

    <report>
        <no-warnings value="true"/>
    </report>

    <traci_server>
        <remote-port value="50093"/>
    </traci_server>

    <gui_only>
        <gui-settings-file value="in_use_files/flick.cfg"/>
        <quit-on-end value="true"/>
        <start value="true"/>
    </gui_only>

</configuration>
-->

<tripinfos xmlns:xsi="http://www.w3.org/2001/XMLSchema-instance" xsi:noNamespaceSchemaLocation="http://sumo.dlr.de/xsd/tripinfo_file.xsd">
    <tripinfo id="flow14c.0" depart="0.00" departLane="end1_junction_2" departPos="5.10" departSpeed="0.00" departDelay="0.00" arrival="76.00" arrivalLane="junction_end4_0" arrivalPos="486.40" arrivalSpeed="13.68" duration="76.00" routeLength="976.73" waitingTime="0.00" waitingCount="0" stopTime="0.00" timeLoss="7.85" rerouteNo="0" devices="tripinfo_flow14c.0 routing_flow14c.0" vType="car1" speedFactor="1.06" vaporized=""/>
    <tripinfo id="flow43c.0" depart="6.00" departLane="end4_junction_1" departPos="5.10" departSpeed="0.00" departDelay="1.00" arrival="77.00" arrivalLane="junction_end3_0" arrivalPos="486.40" arrivalSpeed="15.89" duration="71.00" routeLength="976.73" waitingTime="0.00" waitingCount="0" stopTime="0.00" timeLoss="9.66" rerouteNo="0" devices="tripinfo_flow43c.0 routing_flow43c.0" vType="car1" speedFactor="1.16" vaporized=""/>
    <tripinfo id="flow24c.1" depart="10.00" departLane="end2_junction_1" departPos="5.10" departSpeed="0.00" departDelay="1.00" arrival="78.00" arrivalLane="junction_end4_1" arrivalPos="486.40" arrivalSpeed="15.79" duration="68.00" routeLength="994.90" waitingTime="0.00" waitingCount="0" stopTime="0.00" timeLoss="5.93" rerouteNo="0" devices="tripinfo_flow24c.1 routing_flow24c.1" vType="car1" speedFactor="1.17" vaporized=""/>
    <tripinfo id="flow21c.0" depart="4.00" departLane="end2_junction_2" departPos="5.10" departSpeed="0.00" departDelay="1.00" arrival="81.00" arrivalLane="junction_end1_0" arrivalPos="486.40" arrivalSpeed="13.53" duration="77.00" routeLength="976.73" waitingTime="0.00" waitingCount="0" stopTime="0.00" timeLoss="8.28" rerouteNo="0" devices="tripinfo_flow21c.0 routing_flow21c.0" vType="car1" speedFactor="1.05" vaporized=""/>
    <tripinfo id="flow14t.0" depart="0.00" departLane="end1_junction_1" departPos="7.20" departSpeed="0.00" departDelay="0.00" arrival="84.00" arrivalLane="junction_end4_0" arrivalPos="486.40" arrivalSpeed="13.23" duration="84.00" routeLength="974.63" waitingTime="0.00" waitingCount="0" stopTime="0.00" timeLoss="10.48" rerouteNo="0" devices="tripinfo_flow14t.0 routing_flow14t.0" vType="truck1" speedFactor="0.97" vaporized=""/>
    <tripinfo id="flow42t.0" depart="2.00" departLane="end4_junction_0" departPos="7.20" departSpeed="0.00" departDelay="1.00" arrival="84.00" arrivalLane="junction_end2_0" arrivalPos="486.40" arrivalSpeed="13.08" duration="82.00" routeLength="992.80" waitingTime="0.00" waitingCount="0" stopTime="0.00" timeLoss="8.15" rerouteNo="0" devices="tripinfo_flow42t.0 routing_flow42t.0" vType="truck1" speedFactor="0.97" vaporized=""/>
    <tripinfo id="flow14t.1" depart="3.00" departLane="end1_junction_2" departPos="7.20" departSpeed="0.00" departDelay="1.00" arrival="85.00" arrivalLane="junction_end4_1" arrivalPos="486.40" arrivalSpeed="13.87" duration="82.00" routeLength="974.63" waitingTime="0.00" waitingCount="0" stopTime="0.00" timeLoss="13.76" rerouteNo="0" devices="tripinfo_flow14t.1 routing_flow14t.1" vType="truck1" speedFactor="1.05" vaporized=""/>
    <tripinfo id="flow21c.1" depart="7.00" departLane="end2_junction_1" departPos="5.10" departSpeed="0.00" departDelay="3.00" arrival="86.00" arrivalLane="junction_end1_0" arrivalPos="486.40" arrivalSpeed="12.82" duration="79.00" routeLength="976.73" waitingTime="0.00" waitingCount="0" stopTime="0.00" timeLoss="6.79" rerouteNo="0" devices="tripinfo_flow21c.1 routing_flow21c.1" vType="car1" speedFactor="0.99" vaporized=""/>
    <tripinfo id="flow21t.0" depart="5.00" departLane="end2_junction_0" departPos="7.20" departSpeed="0.00" departDelay="1.00" arrival="90.00" arrivalLane="junction_end1_0" arrivalPos="486.40" arrivalSpeed="12.97" duration="85.00" routeLength="974.63" waitingTime="0.00" waitingCount="0" stopTime="0.00" timeLoss="11.46" rerouteNo="0" devices="tripinfo_flow21t.0 routing_flow21t.0" vType="truck1" speedFactor="0.96" vaporized=""/>
    <tripinfo id="flow14t.2" depart="8.00" departLane="end1_junction_2" departPos="7.20" departSpeed="0.00" departDelay="2.00" arrival="92.00" arrivalLane="junction_end4_0" arrivalPos="486.40" arrivalSpeed="13.23" duration="84.00" routeLength="974.63" waitingTime="0.00" waitingCount="0" stopTime="0.00" timeLoss="11.57" rerouteNo="0" devices="tripinfo_flow14t.2 routing_flow14t.2" vType="truck1" speedFactor="0.99" vaporized=""/>
    <tripinfo id="flow32c.0" depart="7.00" departLane="end3_junction_0" departPos="5.10" departSpeed="0.00" departDelay="0.00" arrival="93.00" arrivalLane="junction_end2_0" arrivalPos="486.40" arrivalSpeed="11.58" duration="86.00" routeLength="976.73" waitingTime="0.00" waitingCount="0" stopTime="0.00" timeLoss="8.81" rerouteNo="0" devices="tripinfo_flow32c.0 routing_flow32c.0" vType="car1" speedFactor="0.92" vaporized=""/>
    <tripinfo id="flow21c.2" depart="11.00" departLane="end2_junction_2" departPos="5.10" departSpeed="0.00" departDelay="1.00" arrival="94.00" arrivalLane="junction_end1_0" arrivalPos="486.40" arrivalSpeed="12.38" duration="83.00" routeLength="976.73" waitingTime="0.00" waitingCount="0" stopTime="0.00" timeLoss="9.28" rerouteNo="0" devices="tripinfo_flow21c.2 routing_flow21c.2" vType="car1" speedFactor="0.97" vaporized=""/>
    <tripinfo id="flow32t.0" depart="11.00" departLane="end3_junction_2" departPos="7.20" departSpeed="0.00" departDelay="4.00" arrival="95.00" arrivalLane="junction_end2_1" arrivalPos="486.40" arrivalSpeed="13.35" duration="84.00" routeLength="974.63" waitingTime="0.00" waitingCount="0" stopTime="0.00" timeLoss="10.97" rerouteNo="0" devices="tripinfo_flow32t.0 routing_flow32t.0" vType="truck1" speedFactor="0.97" vaporized=""/>
    <tripinfo id="flow14t.3" depart="14.00" departLane="end1_junction_2" departPos="7.20" departSpeed="0.00" departDelay="1.00" arrival="98.00" arrivalLane="junction_end4_0" arrivalPos="486.40" arrivalSpeed="12.95" duration="84.00" routeLength="974.63" waitingTime="0.00" waitingCount="0" stopTime="0.00" timeLoss="10.94" rerouteNo="0" devices="tripinfo_flow14t.3 routing_flow14t.3" vType="truck1" speedFactor="0.98" vaporized=""/>
    <tripinfo id="flow43t.0" depart="21.00" departLane="end4_junction_2" departPos="7.20" departSpeed="0.00" departDelay="0.00" arrival="104.00" arrivalLane="junction_end3_0" arrivalPos="486.40" arrivalSpeed="13.40" duration="83.00" routeLength="974.63" waitingTime="0.00" waitingCount="0" stopTime="0.00" timeLoss="11.17" rerouteNo="0" devices="tripinfo_flow43t.0 routing_flow43t.0" vType="truck1" speedFactor="0.98" vaporized=""/>
    <tripinfo id="flow34c.0" depart="0.00" departLane="end3_junction_2" departPos="5.10" departSpeed="0.00" departDelay="0.00" arrival="105.00" arrivalLane="junction_end4_0" arrivalPos="486.40" arrivalSpeed="13.50" duration="105.00" routeLength="992.21" waitingTime="24.00" waitingCount="1" stopTime="0.00" timeLoss="35.10" rerouteNo="0" devices="tripinfo_flow34c.0 routing_flow34c.0" vType="car1" speedFactor="1.03" vaporized=""/>
    <tripinfo id="flow21c.5" depart="27.00" departLane="end2_junction_2" departPos="5.10" departSpeed="0.00" departDelay="0.00" arrival="105.00" arrivalLane="junction_end1_0" arrivalPos="486.40" arrivalSpeed="13.36" duration="78.00" routeLength="976.73" waitingTime="0.00" waitingCount="0" stopTime="0.00" timeLoss="9.14" rerouteNo="0" devices="tripinfo_flow21c.5 routing_flow21c.5" vType="car1" speedFactor="1.03" vaporized=""/>
    <tripinfo id="flow34c.1" depart="2.00" departLane="end3_junction_0" departPos="5.10" departSpeed="0.00" departDelay="0.00" arrival="108.00" arrivalLane="junction_end4_1" arrivalPos="486.40" arrivalSpeed="13.78" duration="106.00" routeLength="992.21" waitingTime="22.00" waitingCount="1" stopTime="0.00" timeLoss="34.97" rerouteNo="0" devices="tripinfo_flow34c.1 routing_flow34c.1" vType="car1" speedFactor="1.03" vaporized=""/>
    <tripinfo id="flow32c.1" depart="16.00" departLane="end3_junction_2" departPos="5.10" departSpeed="0.00" departDelay="0.00" arrival="109.00" arrivalLane="junction_end2_0" arrivalPos="486.40" arrivalSpeed="10.81" duration="93.00" routeLength="976.73" waitingTime="0.00" waitingCount="0" stopTime="0.00" timeLoss="9.32" rerouteNo="0" devices="tripinfo_flow32c.1 routing_flow32c.1" vType="car1" speedFactor="0.85" vaporized=""/>
    <tripinfo id="flow12t.0" depart="2.00" departLane="end1_junction_0" departPos="7.20" departSpeed="0.00" departDelay="1.00" arrival="110.00" arrivalLane="junction_end2_1" arrivalPos="486.40" arrivalSpeed="13.07" duration="108.00" routeLength="990.11" waitingTime="16.00" waitingCount="1" stopTime="0.00" timeLoss="31.78" rerouteNo="0" devices="tripinfo_flow12t.0 routing_flow12t.0" vType="truck1" speedFactor="0.94" vaporized=""/>
    <tripinfo id="flow12t.2" depart="7.00" departLane="end1_junction_0" departPos="7.20" departSpeed="0.00" departDelay="1.00" arrival="110.00" arrivalLane="junction_end2_2" arrivalPos="486.40" arrivalSpeed="13.60" duration="103.00" routeLength="990.11" waitingTime="15.00" waitingCount="1" stopTime="0.00" timeLoss="31.42" rerouteNo="0" devices="tripinfo_flow12t.2 routing_flow12t.2" vType="truck1" speedFactor="1.01" vaporized=""/>
    <tripinfo id="flow32c.3" depart="33.00" departLane="end3_junction_2" departPos="5.10" departSpeed="0.00" departDelay="0.00" arrival="111.00" arrivalLane="junction_end2_0" arrivalPos="486.40" arrivalSpeed="14.20" duration="78.00" routeLength="976.73" waitingTime="0.00" waitingCount="0" stopTime="0.00" timeLoss="12.52" rerouteNo="0" devices="tripinfo_flow32c.3 routing_flow32c.3" vType="car1" speedFactor="1.09" vaporized=""/>
    <tripinfo id="flow43t.2" depart="34.00" departLane="end4_junction_2" departPos="7.20" departSpeed="0.00" departDelay="0.00" arrival="113.00" arrivalLane="junction_end3_0" arrivalPos="486.40" arrivalSpeed="14.10" duration="79.00" routeLength="974.63" waitingTime="0.00" waitingCount="0" stopTime="0.00" timeLoss="11.02" rerouteNo="0" devices="tripinfo_flow43t.2 routing_flow43t.2" vType="truck1" speedFactor="1.06" vaporized=""/>
    <tripinfo id="flow34t.0" depart="5.00" departLane="end3_junction_1" departPos="7.20" departSpeed="0.00" departDelay="0.00" arrival="114.00" arrivalLane="junction_end4_0" arrivalPos="486.40" arrivalSpeed="13.23" duration="109.00" routeLength="990.11" waitingTime="18.00" waitingCount="1" stopTime="0.00" timeLoss="34.04" rerouteNo="0" devices="tripinfo_flow34t.0 routing_flow34t.0" vType="truck1" speedFactor="0.97" vaporized=""/>
    <tripinfo id="flow12t.1" depart="9.00" departLane="end1_junction_1" departPos="7.20" departSpeed="0.00" departDelay="4.00" arrival="115.00" arrivalLane="junction_end2_0" arrivalPos="486.40" arrivalSpeed="12.48" duration="106.00" routeLength="990.11" waitingTime="12.00" waitingCount="1" stopTime="0.00" timeLoss="29.21" rerouteNo="0" devices="tripinfo_flow12t.1 routing_flow12t.1" vType="truck1" speedFactor="0.94" vaporized=""/>
</tripinfos>
