<?xml version="1.0" encoding="UTF-8"?>

<!-- generated on 2022-01-17 18:21:41 by Eclipse SUMO sumo Version 1.11.0
<configuration xmlns:xsi="http://www.w3.org/2001/XMLSchema-instance" xsi:noNamespaceSchemaLocation="http://sumo.dlr.de/xsd/sumoConfiguration.xsd">

    <input>
        <net-file value="draft.net.xml"/>
        <route-files value="draft.rou.xml"/>
    </input>

    <output>
        <summary-output value="sum.xml"/>
        <tripinfo-output value="tripinfo.xml"/>
    </output>

    <time>
        <end value="900"/>
    </time>

    <processing>
        <time-to-teleport value="-1"/>
    </processing>

    <report>
        <no-warnings value="true"/>
    </report>

    <traci_server>
        <remote-port value="53389"/>
    </traci_server>

    <gui_only>
        <gui-settings-file value="flick.cfg"/>
        <quit-on-end value="true"/>
        <start value="true"/>
    </gui_only>

</configuration>
-->

<tripinfos xmlns:xsi="http://www.w3.org/2001/XMLSchema-instance" xsi:noNamespaceSchemaLocation="http://sumo.dlr.de/xsd/tripinfo_file.xsd">
    <tripinfo id="flow21c.0" depart="4.00" departLane="end2_junction_1" departPos="5.10" departSpeed="0.00" departDelay="0.00" arrival="80.00" arrivalLane="junction_end1_0" arrivalPos="486.40" arrivalSpeed="13.66" duration="76.00" routeLength="976.73" waitingTime="0.00" waitingCount="0" stopTime="0.00" timeLoss="7.94" rerouteNo="0" devices="tripinfo_flow21c.0 routing_flow21c.0" vType="car1" speedFactor="1.05" vaporized=""/>
    <tripinfo id="flow32t.0" depart="7.00" departLane="end3_junction_2" departPos="7.20" departSpeed="0.00" departDelay="0.00" arrival="86.00" arrivalLane="junction_end2_0" arrivalPos="486.40" arrivalSpeed="14.53" duration="79.00" routeLength="974.63" waitingTime="0.00" waitingCount="0" stopTime="0.00" timeLoss="11.72" rerouteNo="0" devices="tripinfo_flow32t.0 routing_flow32t.0" vType="truck1" speedFactor="1.06" vaporized=""/>
    <tripinfo id="flow43c.1" depart="8.00" departLane="end4_junction_1" departPos="5.10" departSpeed="0.00" departDelay="2.00" arrival="89.00" arrivalLane="junction_end3_1" arrivalPos="486.40" arrivalSpeed="13.47" duration="81.00" routeLength="976.73" waitingTime="0.00" waitingCount="0" stopTime="0.00" timeLoss="12.53" rerouteNo="0" devices="tripinfo_flow43c.1 routing_flow43c.1" vType="car1" speedFactor="1.05" vaporized=""/>
    <tripinfo id="flow43c.0" depart="6.00" departLane="end4_junction_0" departPos="5.10" departSpeed="0.00" departDelay="1.00" arrival="91.00" arrivalLane="junction_end3_0" arrivalPos="486.40" arrivalSpeed="12.74" duration="85.00" routeLength="976.73" waitingTime="0.00" waitingCount="0" stopTime="0.00" timeLoss="8.97" rerouteNo="0" devices="tripinfo_flow43c.0 routing_flow43c.0" vType="car1" speedFactor="0.94" vaporized=""/>
    <tripinfo id="flow21t.0" depart="6.00" departLane="end2_junction_2" departPos="7.20" departSpeed="0.00" departDelay="2.00" arrival="93.00" arrivalLane="junction_end1_0" arrivalPos="486.40" arrivalSpeed="12.46" duration="87.00" routeLength="974.63" waitingTime="0.00" waitingCount="0" stopTime="0.00" timeLoss="10.91" rerouteNo="0" devices="tripinfo_flow21t.0 routing_flow21t.0" vType="truck1" speedFactor="0.94" vaporized=""/>
    <tripinfo id="flow14t.0" depart="6.00" departLane="end1_junction_0" departPos="7.20" departSpeed="0.00" departDelay="0.00" arrival="93.00" arrivalLane="junction_end4_0" arrivalPos="486.40" arrivalSpeed="12.77" duration="87.00" routeLength="974.63" waitingTime="0.00" waitingCount="0" stopTime="0.00" timeLoss="10.13" rerouteNo="0" devices="tripinfo_flow14t.0 routing_flow14t.0" vType="truck1" speedFactor="0.93" vaporized=""/>
    <tripinfo id="flow14t.1" depart="13.00" departLane="end1_junction_1" departPos="7.20" departSpeed="0.00" departDelay="0.00" arrival="95.00" arrivalLane="junction_end4_0" arrivalPos="486.40" arrivalSpeed="13.82" duration="82.00" routeLength="974.63" waitingTime="0.00" waitingCount="0" stopTime="0.00" timeLoss="11.13" rerouteNo="0" devices="tripinfo_flow14t.1 routing_flow14t.1" vType="truck1" speedFactor="1.01" vaporized=""/>
    <tripinfo id="flow21c.1" depart="11.00" departLane="end2_junction_1" departPos="5.10" departSpeed="0.00" departDelay="1.00" arrival="96.00" arrivalLane="junction_end1_0" arrivalPos="486.40" arrivalSpeed="12.89" duration="85.00" routeLength="976.73" waitingTime="0.00" waitingCount="0" stopTime="0.00" timeLoss="9.20" rerouteNo="0" devices="tripinfo_flow21c.1 routing_flow21c.1" vType="car1" speedFactor="0.94" vaporized=""/>
    <tripinfo id="flow34c.0" depart="2.00" departLane="end3_junction_2" departPos="5.10" departSpeed="0.00" departDelay="0.00" arrival="101.00" arrivalLane="junction_end4_0" arrivalPos="486.40" arrivalSpeed="13.24" duration="99.00" routeLength="992.21" waitingTime="17.00" waitingCount="1" stopTime="0.00" timeLoss="28.55" rerouteNo="0" devices="tripinfo_flow34c.0 routing_flow34c.0" vType="car1" speedFactor="1.03" vaporized=""/>
    <tripinfo id="flow34t.0" depart="10.00" departLane="end3_junction_0" departPos="7.20" departSpeed="0.00" departDelay="2.00" arrival="108.00" arrivalLane="junction_end4_0" arrivalPos="486.40" arrivalSpeed="12.57" duration="98.00" routeLength="990.11" waitingTime="6.00" waitingCount="2" stopTime="0.00" timeLoss="21.49" rerouteNo="0" devices="tripinfo_flow34t.0 routing_flow34t.0" vType="truck1" speedFactor="0.94" vaporized=""/>
    <tripinfo id="flow34c.1" depart="17.00" departLane="end3_junction_1" departPos="5.10" departSpeed="0.00" departDelay="1.00" arrival="110.00" arrivalLane="junction_end4_1" arrivalPos="486.40" arrivalSpeed="12.97" duration="93.00" routeLength="992.21" waitingTime="2.00" waitingCount="1" stopTime="0.00" timeLoss="16.98" rerouteNo="0" devices="tripinfo_flow34c.1 routing_flow34c.1" vType="car1" speedFactor="0.95" vaporized=""/>
    <tripinfo id="flow34c.2" depart="30.00" departLane="end3_junction_2" departPos="5.10" departSpeed="0.00" departDelay="0.00" arrival="110.00" arrivalLane="junction_end4_2" arrivalPos="486.40" arrivalSpeed="13.82" duration="80.00" routeLength="992.21" waitingTime="0.00" waitingCount="0" stopTime="0.00" timeLoss="11.07" rerouteNo="0" devices="tripinfo_flow34c.2 routing_flow34c.2" vType="car1" speedFactor="1.04" vaporized=""/>
    <tripinfo id="flow14t.2" depart="27.00" departLane="end1_junction_2" departPos="7.20" departSpeed="0.00" departDelay="0.00" arrival="113.00" arrivalLane="junction_end4_0" arrivalPos="486.40" arrivalSpeed="12.86" duration="86.00" routeLength="974.63" waitingTime="0.00" waitingCount="0" stopTime="0.00" timeLoss="10.93" rerouteNo="0" devices="tripinfo_flow14t.2 routing_flow14t.2" vType="truck1" speedFactor="0.95" vaporized=""/>
    <tripinfo id="flow43t.0" depart="29.00" departLane="end4_junction_2" departPos="7.20" departSpeed="0.00" departDelay="1.00" arrival="113.00" arrivalLane="junction_end3_0" arrivalPos="486.40" arrivalSpeed="13.19" duration="84.00" routeLength="974.63" waitingTime="0.00" waitingCount="0" stopTime="0.00" timeLoss="10.88" rerouteNo="0" devices="tripinfo_flow43t.0 routing_flow43t.0" vType="truck1" speedFactor="0.98" vaporized=""/>
    <tripinfo id="flow12t.0" depart="34.00" departLane="end1_junction_1" departPos="7.20" departSpeed="0.00" departDelay="0.00" arrival="119.00" arrivalLane="junction_end2_0" arrivalPos="486.40" arrivalSpeed="12.68" duration="85.00" routeLength="990.11" waitingTime="0.00" waitingCount="0" stopTime="0.00" timeLoss="9.37" rerouteNo="0" devices="tripinfo_flow12t.0 routing_flow12t.0" vType="truck1" speedFactor="0.95" vaporized=""/>
    <tripinfo id="flow41c.0" depart="1.00" departLane="end4_junction_0" departPos="5.10" departSpeed="0.00" departDelay="0.00" arrival="121.00" arrivalLane="junction_end1_1" arrivalPos="486.40" arrivalSpeed="14.12" duration="120.00" routeLength="992.21" waitingTime="42.00" waitingCount="1" stopTime="0.00" timeLoss="53.41" rerouteNo="0" devices="tripinfo_flow41c.0 routing_flow41c.0" vType="car1" speedFactor="1.08" vaporized=""/>
    <tripinfo id="flow23c.0" depart="0.00" departLane="end2_junction_2" departPos="5.10" departSpeed="0.00" departDelay="0.00" arrival="122.00" arrivalLane="junction_end3_0" arrivalPos="486.40" arrivalSpeed="13.62" duration="122.00" routeLength="992.21" waitingTime="42.00" waitingCount="1" stopTime="0.00" timeLoss="53.54" rerouteNo="0" devices="tripinfo_flow23c.0 routing_flow23c.0" vType="car1" speedFactor="1.06" vaporized=""/>
    <tripinfo id="flow23t.0" depart="14.00" departLane="end2_junction_1" departPos="7.20" departSpeed="0.00" departDelay="1.00" arrival="127.00" arrivalLane="junction_end3_0" arrivalPos="486.40" arrivalSpeed="13.92" duration="113.00" routeLength="990.11" waitingTime="25.00" waitingCount="1" stopTime="0.00" timeLoss="41.41" rerouteNo="0" devices="tripinfo_flow23t.0 routing_flow23t.0" vType="truck1" speedFactor="1.01" vaporized=""/>
    <tripinfo id="flow23c.1" depart="24.00" departLane="end2_junction_0" departPos="5.10" departSpeed="0.00" departDelay="2.00" arrival="127.00" arrivalLane="junction_end3_2" arrivalPos="486.40" arrivalSpeed="15.03" duration="103.00" routeLength="992.21" waitingTime="24.00" waitingCount="1" stopTime="0.00" timeLoss="39.72" rerouteNo="0" devices="tripinfo_flow23c.1 routing_flow23c.1" vType="car1" speedFactor="1.15" vaporized=""/>
    <tripinfo id="flow41t.0" depart="0.00" departLane="end4_junction_1" departPos="7.20" departSpeed="0.00" departDelay="0.00" arrival="129.00" arrivalLane="junction_end1_0" arrivalPos="486.40" arrivalSpeed="12.89" duration="129.00" routeLength="990.11" waitingTime="39.00" waitingCount="1" stopTime="0.00" timeLoss="54.37" rerouteNo="0" devices="tripinfo_flow41t.0 routing_flow41t.0" vType="truck1" speedFactor="0.97" vaporized=""/>
    <tripinfo id="flow41c.2" depart="17.00" departLane="end4_junction_2" departPos="5.10" departSpeed="0.00" departDelay="1.00" arrival="129.00" arrivalLane="junction_end1_1" arrivalPos="486.40" arrivalSpeed="14.90" duration="112.00" routeLength="992.21" waitingTime="25.00" waitingCount="1" stopTime="0.00" timeLoss="47.93" rerouteNo="0" devices="tripinfo_flow41c.2 routing_flow41c.2" vType="car1" speedFactor="1.13" vaporized=""/>
    <tripinfo id="flow41t.1" depart="25.00" departLane="end4_junction_2" departPos="7.20" departSpeed="0.00" departDelay="0.00" arrival="132.00" arrivalLane="junction_end1_1" arrivalPos="486.40" arrivalSpeed="14.57" duration="107.00" routeLength="990.11" waitingTime="22.00" waitingCount="1" stopTime="0.00" timeLoss="40.27" rerouteNo="0" devices="tripinfo_flow41t.1 routing_flow41t.1" vType="truck1" speedFactor="1.09" vaporized=""/>
    <tripinfo id="flow41c.3" depart="32.00" departLane="end4_junction_1" departPos="5.10" departSpeed="0.00" departDelay="1.00" arrival="134.00" arrivalLane="junction_end1_1" arrivalPos="486.40" arrivalSpeed="14.03" duration="102.00" routeLength="992.21" waitingTime="19.00" waitingCount="1" stopTime="0.00" timeLoss="35.33" rerouteNo="0" devices="tripinfo_flow41c.3 routing_flow41c.3" vType="car1" speedFactor="1.09" vaporized=""/>
    <tripinfo id="flow41c.1" depart="13.00" departLane="end4_junction_2" departPos="5.10" departSpeed="0.00" departDelay="0.00" arrival="135.00" arrivalLane="junction_end1_0" arrivalPos="486.40" arrivalSpeed="11.96" duration="122.00" routeLength="992.21" waitingTime="26.00" waitingCount="1" stopTime="0.00" timeLoss="41.08" rerouteNo="0" devices="tripinfo_flow41c.1 routing_flow41c.1" vType="car1" speedFactor="0.89" vaporized=""/>
    <tripinfo id="flow23t.1" depart="34.00" departLane="end2_junction_0" departPos="7.20" departSpeed="0.00" departDelay="0.00" arrival="135.00" arrivalLane="junction_end3_0" arrivalPos="486.40" arrivalSpeed="12.39" duration="101.00" routeLength="990.11" waitingTime="6.00" waitingCount="1" stopTime="0.00" timeLoss="23.62" rerouteNo="0" devices="tripinfo_flow23t.1 routing_flow23t.1" vType="truck1" speedFactor="0.94" vaporized=""/>
    <tripinfo id="flow41c.4" depart="36.00" departLane="end4_junction_1" departPos="5.10" departSpeed="0.00" departDelay="0.00" arrival="135.00" arrivalLane="junction_end1_2" arrivalPos="486.40" arrivalSpeed="15.80" duration="99.00" routeLength="992.21" waitingTime="18.00" waitingCount="1" stopTime="0.00" timeLoss="36.87" rerouteNo="0" devices="tripinfo_flow41c.4 routing_flow41c.4" vType="car1" speedFactor="1.17" vaporized=""/>
    <tripinfo id="flow41c.5" depart="38.00" departLane="end4_junction_2" departPos="5.10" departSpeed="0.00" departDelay="0.00" arrival="140.00" arrivalLane="junction_end1_0" arrivalPos="486.40" arrivalSpeed="12.91" duration="102.00" routeLength="992.21" waitingTime="13.00" waitingCount="1" stopTime="0.00" timeLoss="30.11" rerouteNo="0" devices="tripinfo_flow41c.5 routing_flow41c.5" vType="car1" speedFactor="1.00" vaporized=""/>
    <tripinfo id="flow23c.3" depart="59.00" departLane="end2_junction_2" departPos="5.10" departSpeed="0.00" departDelay="0.00" arrival="141.00" arrivalLane="junction_end3_0" arrivalPos="486.40" arrivalSpeed="12.14" duration="82.00" routeLength="992.21" waitingTime="0.00" waitingCount="0" stopTime="0.00" timeLoss="7.01" rerouteNo="0" devices="tripinfo_flow23c.3 routing_flow23c.3" vType="car1" speedFactor="0.97" vaporized=""/>
    <tripinfo id="flow14t.4" depart="42.00" departLane="end1_junction_1" departPos="7.20" departSpeed="0.00" departDelay="1.00" arrival="145.00" arrivalLane="junction_end4_0" arrivalPos="486.40" arrivalSpeed="13.97" duration="103.00" routeLength="974.63" waitingTime="0.00" waitingCount="0" stopTime="0.00" timeLoss="33.06" rerouteNo="0" devices="tripinfo_flow14t.4 routing_flow14t.4" vType="truck1" speedFactor="1.01" vaporized=""/>
    <tripinfo id="flow13c.1" depart="24.00" departLane="end1_junction_2" departPos="5.10" departSpeed="0.00" departDelay="1.00" arrival="146.00" arrivalLane="junction_end3_2" arrivalPos="486.40" arrivalSpeed="16.15" duration="122.00" routeLength="994.90" waitingTime="47.00" waitingCount="1" stopTime="0.00" timeLoss="60.58" rerouteNo="0" devices="tripinfo_flow13c.1 routing_flow13c.1" vType="car1" speedFactor="1.17" vaporized=""/>
    <tripinfo id="flow13c.0" depart="10.00" departLane="end1_junction_1" departPos="5.10" departSpeed="0.00" departDelay="0.00" arrival="151.00" arrivalLane="junction_end3_0" arrivalPos="486.40" arrivalSpeed="12.40" duration="141.00" routeLength="994.90" waitingTime="52.00" waitingCount="1" stopTime="0.00" timeLoss="64.34" rerouteNo="0" devices="tripinfo_flow13c.0 routing_flow13c.0" vType="car1" speedFactor="0.94" vaporized=""/>
    <tripinfo id="flow31t.0" depart="25.00" departLane="end3_junction_2" departPos="7.20" departSpeed="0.00" departDelay="0.00" arrival="152.00" arrivalLane="junction_end1_0" arrivalPos="486.40" arrivalSpeed="13.09" duration="127.00" routeLength="992.80" waitingTime="38.00" waitingCount="1" stopTime="0.00" timeLoss="54.03" rerouteNo="0" devices="tripinfo_flow31t.0 routing_flow31t.0" vType="truck1" speedFactor="0.99" vaporized=""/>
    <tripinfo id="flow14c.0" depart="47.00" departLane="end1_junction_1" departPos="5.10" departSpeed="0.00" departDelay="0.00" arrival="154.00" arrivalLane="junction_end4_0" arrivalPos="486.40" arrivalSpeed="12.62" duration="107.00" routeLength="976.73" waitingTime="0.00" waitingCount="0" stopTime="0.00" timeLoss="31.51" rerouteNo="0" devices="tripinfo_flow14c.0 routing_flow14c.0" vType="car1" speedFactor="0.94" vaporized=""/>
    <tripinfo id="flow14t.3" depart="38.00" departLane="end1_junction_0" departPos="7.20" departSpeed="0.00" departDelay="0.00" arrival="161.00" arrivalLane="junction_end4_0" arrivalPos="486.40" arrivalSpeed="14.14" duration="123.00" routeLength="974.63" waitingTime="0.00" waitingCount="0" stopTime="0.00" timeLoss="54.75" rerouteNo="0" devices="tripinfo_flow14t.3 routing_flow14t.3" vType="truck1" speedFactor="1.05" vaporized=""/>
    <tripinfo id="flow14t.5" depart="56.00" departLane="end1_junction_0" departPos="7.20" departSpeed="0.00" departDelay="0.00" arrival="165.00" arrivalLane="junction_end4_0" arrivalPos="486.40" arrivalSpeed="13.36" duration="109.00" routeLength="974.63" waitingTime="0.00" waitingCount="0" stopTime="0.00" timeLoss="37.87" rerouteNo="0" devices="tripinfo_flow14t.5 routing_flow14t.5" vType="truck1" speedFactor="1.00" vaporized=""/>
    <tripinfo id="flow21t.1" depart="36.00" departLane="end2_junction_2" departPos="7.20" departSpeed="0.00" departDelay="1.00" arrival="166.00" arrivalLane="junction_end1_0" arrivalPos="486.40" arrivalSpeed="12.38" duration="130.00" routeLength="974.63" waitingTime="0.00" waitingCount="0" stopTime="0.00" timeLoss="53.00" rerouteNo="0" devices="tripinfo_flow21t.1 routing_flow21t.1" vType="truck1" speedFactor="0.93" vaporized=""/>
    <tripinfo id="flow14t.6" depart="60.00" departLane="end1_junction_2" departPos="7.20" departSpeed="0.00" departDelay="2.00" arrival="167.00" arrivalLane="junction_end4_1" arrivalPos="486.40" arrivalSpeed="13.61" duration="107.00" routeLength="974.63" waitingTime="0.00" waitingCount="0" stopTime="0.00" timeLoss="35.53" rerouteNo="0" devices="tripinfo_flow14t.6 routing_flow14t.6" vType="truck1" speedFactor="1.01" vaporized=""/>
    <tripinfo id="flow42c.0" depart="6.00" departLane="end4_junction_2" departPos="5.10" departSpeed="0.00" departDelay="0.00" arrival="172.00" arrivalLane="junction_end2_0" arrivalPos="486.40" arrivalSpeed="14.13" duration="166.00" routeLength="994.90" waitingTime="84.00" waitingCount="1" stopTime="0.00" timeLoss="96.20" rerouteNo="0" devices="tripinfo_flow42c.0 routing_flow42c.0" vType="car1" speedFactor="1.03" vaporized=""/>
    <tripinfo id="flow14c.1" depart="76.00" departLane="end1_junction_0" departPos="5.10" departSpeed="0.00" departDelay="2.00" arrival="172.00" arrivalLane="junction_end4_0" arrivalPos="486.40" arrivalSpeed="13.18" duration="96.00" routeLength="976.73" waitingTime="1.00" waitingCount="1" stopTime="0.00" timeLoss="22.11" rerouteNo="0" devices="tripinfo_flow14c.1 routing_flow14c.1" vType="car1" speedFactor="0.97" vaporized=""/>
    <tripinfo id="flow24t.0" depart="12.00" departLane="end2_junction_0" departPos="7.20" departSpeed="0.00" departDelay="0.00" arrival="173.00" arrivalLane="junction_end4_1" arrivalPos="486.40" arrivalSpeed="14.86" duration="161.00" routeLength="992.80" waitingTime="77.00" waitingCount="1" stopTime="0.00" timeLoss="94.17" rerouteNo="0" devices="tripinfo_flow24t.0 routing_flow24t.0" vType="truck1" speedFactor="1.08" vaporized=""/>
    <tripinfo id="flow42c.1" depart="9.00" departLane="end4_junction_0" departPos="5.10" departSpeed="0.00" departDelay="2.00" arrival="176.00" arrivalLane="junction_end2_0" arrivalPos="486.40" arrivalSpeed="13.50" duration="167.00" routeLength="994.90" waitingTime="80.00" waitingCount="1" stopTime="0.00" timeLoss="94.24" rerouteNo="0" devices="tripinfo_flow42c.1 routing_flow42c.1" vType="car1" speedFactor="0.99" vaporized=""/>
    <tripinfo id="flow24c.0" depart="51.00" departLane="end2_junction_2" departPos="5.10" departSpeed="0.00" departDelay="0.00" arrival="180.00" arrivalLane="junction_end4_0" arrivalPos="486.40" arrivalSpeed="12.68" duration="129.00" routeLength="994.90" waitingTime="39.00" waitingCount="1" stopTime="0.00" timeLoss="52.45" rerouteNo="0" devices="tripinfo_flow24c.0 routing_flow24c.0" vType="car1" speedFactor="0.94" vaporized=""/>
    <tripinfo id="flow42c.3" depart="22.00" departLane="end4_junction_1" departPos="5.10" departSpeed="0.00" departDelay="0.00" arrival="181.00" arrivalLane="junction_end2_2" arrivalPos="486.40" arrivalSpeed="12.95" duration="159.00" routeLength="994.90" waitingTime="72.00" waitingCount="1" stopTime="0.00" timeLoss="87.53" rerouteNo="0" devices="tripinfo_flow42c.3 routing_flow42c.3" vType="car1" speedFactor="1.01" vaporized=""/>
    <tripinfo id="flow21c.2" depart="52.00" departLane="end2_junction_0" departPos="5.10" departSpeed="0.00" departDelay="1.00" arrival="181.00" arrivalLane="junction_end1_1" arrivalPos="486.40" arrivalSpeed="12.78" duration="129.00" routeLength="976.73" waitingTime="0.00" waitingCount="0" stopTime="0.00" timeLoss="55.59" rerouteNo="0" devices="tripinfo_flow21c.2 routing_flow21c.2" vType="car1" speedFactor="0.97" vaporized=""/>
    <tripinfo id="flow42c.4" depart="30.00" departLane="end4_junction_0" departPos="5.10" departSpeed="0.00" departDelay="1.00" arrival="182.00" arrivalLane="junction_end2_1" arrivalPos="486.40" arrivalSpeed="13.38" duration="152.00" routeLength="994.90" waitingTime="67.00" waitingCount="1" stopTime="0.00" timeLoss="82.33" rerouteNo="0" devices="tripinfo_flow42c.4 routing_flow42c.4" vType="car1" speedFactor="1.04" vaporized=""/>
    <tripinfo id="flow42c.2" depart="15.00" departLane="end4_junction_1" departPos="5.10" departSpeed="0.00" departDelay="0.00" arrival="183.00" arrivalLane="junction_end2_0" arrivalPos="486.40" arrivalSpeed="11.19" duration="168.00" routeLength="994.90" waitingTime="74.00" waitingCount="1" stopTime="0.00" timeLoss="85.68" rerouteNo="0" devices="tripinfo_flow42c.2 routing_flow42c.2" vType="car1" speedFactor="0.87" vaporized=""/>
    <tripinfo id="flow42c.5" depart="36.00" departLane="end4_junction_0" departPos="5.10" departSpeed="0.00" departDelay="0.00" arrival="184.00" arrivalLane="junction_end2_1" arrivalPos="486.40" arrivalSpeed="14.04" duration="148.00" routeLength="994.90" waitingTime="59.00" waitingCount="1" stopTime="0.00" timeLoss="77.05" rerouteNo="0" devices="tripinfo_flow42c.5 routing_flow42c.5" vType="car1" speedFactor="1.02" vaporized=""/>
    <tripinfo id="flow21c.3" depart="65.00" departLane="end2_junction_2" departPos="5.10" departSpeed="0.00" departDelay="0.00" arrival="184.00" arrivalLane="junction_end1_0" arrivalPos="486.40" arrivalSpeed="10.65" duration="119.00" routeLength="976.73" waitingTime="0.00" waitingCount="0" stopTime="0.00" timeLoss="33.20" rerouteNo="0" devices="tripinfo_flow21c.3 routing_flow21c.3" vType="car1" speedFactor="0.83" vaporized=""/>
    <tripinfo id="flow21t.2" depart="80.00" departLane="end2_junction_2" departPos="7.20" departSpeed="0.00" departDelay="0.00" arrival="184.00" arrivalLane="junction_end1_2" arrivalPos="486.40" arrivalSpeed="13.07" duration="104.00" routeLength="974.63" waitingTime="0.00" waitingCount="0" stopTime="0.00" timeLoss="29.34" rerouteNo="0" devices="tripinfo_flow21t.2 routing_flow21t.2" vType="truck1" speedFactor="0.96" vaporized=""/>
    <tripinfo id="flow42c.6" depart="63.00" departLane="end4_junction_2" departPos="5.10" departSpeed="0.00" departDelay="3.00" arrival="185.00" arrivalLane="junction_end2_2" arrivalPos="486.40" arrivalSpeed="13.50" duration="122.00" routeLength="994.90" waitingTime="36.00" waitingCount="1" stopTime="0.00" timeLoss="53.22" rerouteNo="0" devices="tripinfo_flow42c.6 routing_flow42c.6" vType="car1" speedFactor="1.04" vaporized=""/>
    <tripinfo id="flow42c.7" depart="67.00" departLane="end4_junction_1" departPos="5.10" departSpeed="0.00" departDelay="0.00" arrival="187.00" arrivalLane="junction_end2_1" arrivalPos="486.40" arrivalSpeed="14.45" duration="120.00" routeLength="994.90" waitingTime="35.00" waitingCount="1" stopTime="0.00" timeLoss="51.35" rerouteNo="0" devices="tripinfo_flow42c.7 routing_flow42c.7" vType="car1" speedFactor="1.06" vaporized=""/>
    <tripinfo id="flow43b.0" depart="0.00" departLane="end4_junction_2" departPos="1.70" departSpeed="0.00" departDelay="0.00" arrival="189.00" arrivalLane="junction_end3_0" arrivalPos="486.40" arrivalSpeed="5.32" duration="189.00" routeLength="980.13" waitingTime="0.00" waitingCount="0" stopTime="0.00" timeLoss="11.77" rerouteNo="0" devices="tripinfo_flow43b.0 routing_flow43b.0" vType="bike1" speedFactor="1.01" vaporized=""/>
    <tripinfo id="flow42t.0" depart="70.00" departLane="end4_junction_1" departPos="7.20" departSpeed="0.00" departDelay="0.00" arrival="189.00" arrivalLane="junction_end2_0" arrivalPos="486.40" arrivalSpeed="13.64" duration="119.00" routeLength="992.80" waitingTime="31.00" waitingCount="1" stopTime="0.00" timeLoss="47.55" rerouteNo="0" devices="tripinfo_flow42t.0 routing_flow42t.0" vType="truck1" speedFactor="1.00" vaporized=""/>
    <tripinfo id="flow21t.3" depart="108.00" departLane="end2_junction_1" departPos="7.20" departSpeed="0.00" departDelay="0.00" arrival="190.00" arrivalLane="junction_end1_1" arrivalPos="486.40" arrivalSpeed="14.19" duration="82.00" routeLength="974.63" waitingTime="0.00" waitingCount="0" stopTime="0.00" timeLoss="12.96" rerouteNo="0" devices="tripinfo_flow21t.3 routing_flow21t.3" vType="truck1" speedFactor="1.03" vaporized=""/>
    <tripinfo id="flow24t.1" depart="80.00" departLane="end2_junction_1" departPos="7.20" departSpeed="0.00" departDelay="0.00" arrival="192.00" arrivalLane="junction_end4_0" arrivalPos="486.40" arrivalSpeed="12.39" duration="112.00" routeLength="992.80" waitingTime="1.00" waitingCount="1" stopTime="0.00" timeLoss="34.51" rerouteNo="0" devices="tripinfo_flow24t.1 routing_flow24t.1" vType="truck1" speedFactor="0.93" vaporized=""/>
    <tripinfo id="flow43b.1" depart="3.00" departLane="end4_junction_1" departPos="1.70" departSpeed="0.00" departDelay="0.00" arrival="193.00" arrivalLane="junction_end3_0" arrivalPos="486.40" arrivalSpeed="5.14" duration="190.00" routeLength="980.13" waitingTime="0.00" waitingCount="0" stopTime="0.00" timeLoss="13.37" rerouteNo="0" devices="tripinfo_flow43b.1 routing_flow43b.1" vType="bike1" speedFactor="0.83" vaporized=""/>
    <tripinfo id="flow32t.1" depart="75.00" departLane="end3_junction_0" departPos="7.20" departSpeed="0.00" departDelay="0.00" arrival="194.00" arrivalLane="junction_end2_0" arrivalPos="486.40" arrivalSpeed="12.90" duration="119.00" routeLength="974.63" waitingTime="0.00" waitingCount="0" stopTime="0.00" timeLoss="43.64" rerouteNo="0" devices="tripinfo_flow32t.1 routing_flow32t.1" vType="truck1" speedFactor="0.95" vaporized=""/>
    <tripinfo id="flow21b.0" depart="8.00" departLane="end2_junction_2" departPos="1.70" departSpeed="0.00" departDelay="0.00" arrival="198.00" arrivalLane="junction_end1_0" arrivalPos="486.40" arrivalSpeed="5.21" duration="190.00" routeLength="980.13" waitingTime="0.00" waitingCount="0" stopTime="0.00" timeLoss="12.79" rerouteNo="0" devices="tripinfo_flow21b.0 routing_flow21b.0" vType="bike1" speedFactor="0.93" vaporized=""/>
    <tripinfo id="flow32c.0" depart="95.00" departLane="end3_junction_0" departPos="5.10" departSpeed="0.00" departDelay="0.00" arrival="208.00" arrivalLane="junction_end2_1" arrivalPos="486.40" arrivalSpeed="16.77" duration="113.00" routeLength="976.73" waitingTime="0.00" waitingCount="0" stopTime="0.00" timeLoss="54.70" rerouteNo="0" devices="tripinfo_flow32c.0 routing_flow32c.0" vType="car1" speedFactor="1.23" vaporized=""/>
    <tripinfo id="flow43b.2" depart="23.00" departLane="end4_junction_0" departPos="1.70" departSpeed="0.00" departDelay="0.00" arrival="212.00" arrivalLane="junction_end3_0" arrivalPos="486.40" arrivalSpeed="5.11" duration="189.00" routeLength="980.13" waitingTime="0.00" waitingCount="0" stopTime="0.00" timeLoss="11.96" rerouteNo="0" devices="tripinfo_flow43b.2 routing_flow43b.2" vType="bike1" speedFactor="1.02" vaporized=""/>
    <tripinfo id="flow14b.0" depart="23.00" departLane="end1_junction_1" departPos="1.70" departSpeed="0.00" departDelay="0.00" arrival="214.00" arrivalLane="junction_end4_0" arrivalPos="486.40" arrivalSpeed="5.51" duration="191.00" routeLength="980.13" waitingTime="0.00" waitingCount="0" stopTime="0.00" timeLoss="14.33" rerouteNo="0" devices="tripinfo_flow14b.0 routing_flow14b.0" vType="bike1" speedFactor="0.99" vaporized=""/>
    <tripinfo id="flow14t.7" depart="94.00" departLane="end1_junction_1" departPos="7.20" departSpeed="0.00" departDelay="0.00" arrival="214.00" arrivalLane="junction_end4_1" arrivalPos="486.40" arrivalSpeed="13.02" duration="120.00" routeLength="974.63" waitingTime="0.00" waitingCount="0" stopTime="0.00" timeLoss="47.02" rerouteNo="0" devices="tripinfo_flow14t.7 routing_flow14t.7" vType="truck1" speedFactor="0.98" vaporized=""/>
    <tripinfo id="flow21b.1" depart="26.00" departLane="end2_junction_1" departPos="1.70" departSpeed="0.00" departDelay="0.00" arrival="215.00" arrivalLane="junction_end1_0" arrivalPos="486.40" arrivalSpeed="5.24" duration="189.00" routeLength="980.13" waitingTime="0.00" waitingCount="0" stopTime="0.00" timeLoss="12.29" rerouteNo="0" devices="tripinfo_flow21b.1 routing_flow21b.1" vType="bike1" speedFactor="1.10" vaporized=""/>
    <tripinfo id="flow34t.1" depart="49.00" departLane="end3_junction_2" departPos="7.20" departSpeed="0.00" departDelay="1.00" arrival="215.00" arrivalLane="junction_end4_2" arrivalPos="486.40" arrivalSpeed="13.07" duration="166.00" routeLength="990.11" waitingTime="75.00" waitingCount="1" stopTime="0.00" timeLoss="90.12" rerouteNo="0" devices="tripinfo_flow34t.1 routing_flow34t.1" vType="truck1" speedFactor="0.96" vaporized=""/>
    <tripinfo id="flow14c.2" depart="97.00" departLane="end1_junction_0" departPos="5.10" departSpeed="0.00" departDelay="3.00" arrival="216.00" arrivalLane="junction_end4_1" arrivalPos="486.40" arrivalSpeed="13.84" duration="119.00" routeLength="976.73" waitingTime="0.00" waitingCount="0" stopTime="0.00" timeLoss="51.73" rerouteNo="0" devices="tripinfo_flow14c.2 routing_flow14c.2" vType="car1" speedFactor="1.07" vaporized=""/>
    <tripinfo id="flow32b.0" depart="29.00" departLane="end3_junction_1" departPos="1.70" departSpeed="0.00" departDelay="0.00" arrival="218.00" arrivalLane="junction_end2_0" arrivalPos="486.40" arrivalSpeed="5.23" duration="189.00" routeLength="980.13" waitingTime="0.00" waitingCount="0" stopTime="0.00" timeLoss="12.57" rerouteNo="0" devices="tripinfo_flow32b.0 routing_flow32b.0" vType="bike1" speedFactor="1.09" vaporized=""/>