<?xml version="1.0" encoding="UTF-8"?>

<!-- generated on 2022-01-15 21:11:16 by Eclipse SUMO GUI Version 1.11.0
<configuration xmlns:xsi="http://www.w3.org/2001/XMLSchema-instance" xsi:noNamespaceSchemaLocation="http://sumo.dlr.de/xsd/sumoConfiguration.xsd">

    <input>
        <net-file value="C:\Users\Josh\PycharmProjects\traffic-optimization\draft.net.xml"/>
        <route-files value="C:\Users\Josh\PycharmProjects\traffic-optimization\draft.rou.xml"/>
    </input>

    <output>
        <summary-output value="sum.xml"/>
        <tripinfo-output value="tripinfo.xml"/>
    </output>

    <traci_server>
        <remote-port value="62851"/>
    </traci_server>

    <gui_only>
        <quit-on-end value="true"/>
        <start value="true"/>
    </gui_only>

</configuration>
-->

<tripinfos xmlns:xsi="http://www.w3.org/2001/XMLSchema-instance" xsi:noNamespaceSchemaLocation="http://sumo.dlr.de/xsd/tripinfo_file.xsd">
    <tripinfo id="flow_1.0" depart="0.00" departLane="end1_junction_2" departPos="5.10" departSpeed="30.00" departDelay="0.00" arrival="40.00" arrivalLane="junction_end2_2" arrivalPos="486.40" arrivalSpeed="29.71" duration="40.00" routeLength="992.21" waitingTime="0.00" waitingCount="0" stopTime="0.00" timeLoss="6.37" rerouteNo="0" devices="tripinfo_flow_1.0 routing_flow_1.0" vType="DEFAULT_VEHTYPE" speedFactor="2.16" vaporized=""/>
    <tripinfo id="flow_1.1" depart="2.00" departLane="end1_junction_1" departPos="5.10" departSpeed="30.00" departDelay="0.00" arrival="45.00" arrivalLane="junction_end2_2" arrivalPos="486.40" arrivalSpeed="28.72" duration="43.00" routeLength="992.21" waitingTime="0.00" waitingCount="0" stopTime="0.00" timeLoss="8.75" rerouteNo="0" devices="tripinfo_flow_1.1 routing_flow_1.1" vType="DEFAULT_VEHTYPE" speedFactor="2.16" vaporized=""/>
    <tripinfo id="flow_1.2" depart="4.00" departLane="end1_junction_1" departPos="5.10" departSpeed="30.00" departDelay="0.00" arrival="48.00" arrivalLane="junction_end2_2" arrivalPos="486.40" arrivalSpeed="29.87" duration="44.00" routeLength="992.21" waitingTime="0.00" waitingCount="0" stopTime="0.00" timeLoss="9.79" rerouteNo="0" devices="tripinfo_flow_1.2 routing_flow_1.2" vType="DEFAULT_VEHTYPE" speedFactor="2.16" vaporized=""/>
    <tripinfo id="flow_3.0" depart="1.00" departLane="end4_junction_1" departPos="5.10" departSpeed="0.00" departDelay="0.00" arrival="84.00" arrivalLane="junction_end2_0" arrivalPos="486.40" arrivalSpeed="14.29" duration="83.00" routeLength="994.90" waitingTime="5.00" waitingCount="1" stopTime="0.00" timeLoss="16.12" rerouteNo="0" devices="tripinfo_flow_3.0 routing_flow_3.0" vType="car" speedFactor="1.08" vaporized=""/>
    <tripinfo id="flow_3.1" depart="2.00" departLane="end4_junction_0" departPos="5.10" departSpeed="0.00" departDelay="0.00" arrival="87.00" arrivalLane="junction_end2_0" arrivalPos="486.40" arrivalSpeed="13.88" duration="85.00" routeLength="994.90" waitingTime="2.00" waitingCount="1" stopTime="0.00" timeLoss="15.94" rerouteNo="0" devices="tripinfo_flow_3.1 routing_flow_3.1" vType="car" speedFactor="1.05" vaporized=""/>
    <tripinfo id="flow_3.3" depart="7.00" departLane="end4_junction_1" departPos="5.10" departSpeed="0.00" departDelay="1.00" arrival="93.00" arrivalLane="junction_end2_0" arrivalPos="486.40" arrivalSpeed="12.60" duration="86.00" routeLength="994.90" waitingTime="0.00" waitingCount="0" stopTime="0.00" timeLoss="13.44" rerouteNo="0" devices="tripinfo_flow_3.3 routing_flow_3.3" vType="car" speedFactor="0.99" vaporized=""/>
    <tripinfo id="flow_3.2" depart="4.00" departLane="end4_junction_1" departPos="5.10" departSpeed="0.00" departDelay="1.00" arrival="95.00" arrivalLane="junction_end2_0" arrivalPos="486.40" arrivalSpeed="11.87" duration="91.00" routeLength="994.90" waitingTime="0.00" waitingCount="0" stopTime="0.00" timeLoss="10.03" rerouteNo="0" devices="tripinfo_flow_3.2 routing_flow_3.2" vType="car" speedFactor="0.89" vaporized=""/>
    <tripinfo id="flow_3.7" depart="17.00" departLane="end4_junction_0" departPos="5.10" departSpeed="0.00" departDelay="2.00" arrival="95.00" arrivalLane="junction_end2_1" arrivalPos="486.40" arrivalSpeed="15.60" duration="78.00" routeLength="994.90" waitingTime="0.00" waitingCount="0" stopTime="0.00" timeLoss="15.24" rerouteNo="0" devices="tripinfo_flow_3.7 routing_flow_3.7" vType="car" speedFactor="1.15" vaporized=""/>
    <tripinfo id="flow_3.4" depart="7.00" departLane="end4_junction_2" departPos="5.10" departSpeed="0.00" departDelay="0.00" arrival="97.00" arrivalLane="junction_end2_0" arrivalPos="486.40" arrivalSpeed="12.05" duration="90.00" routeLength="994.90" waitingTime="0.00" waitingCount="0" stopTime="0.00" timeLoss="12.52" rerouteNo="0" devices="tripinfo_flow_3.4 routing_flow_3.4" vType="car" speedFactor="0.93" vaporized=""/>
    <tripinfo id="flow_3.10" depart="18.00" departLane="end4_junction_2" departPos="5.10" departSpeed="0.00" departDelay="0.00" arrival="97.00" arrivalLane="junction_end2_1" arrivalPos="486.40" arrivalSpeed="14.81" duration="79.00" routeLength="994.90" waitingTime="0.00" waitingCount="0" stopTime="0.00" timeLoss="13.98" rerouteNo="0" devices="tripinfo_flow_3.10 routing_flow_3.10" vType="car" speedFactor="1.10" vaporized=""/>
    <tripinfo id="flow_3.5" depart="13.00" departLane="end4_junction_0" departPos="5.10" departSpeed="0.00" departDelay="0.00" arrival="99.00" arrivalLane="junction_end2_0" arrivalPos="486.40" arrivalSpeed="11.86" duration="86.00" routeLength="994.90" waitingTime="0.00" waitingCount="0" stopTime="0.00" timeLoss="7.61" rerouteNo="0" devices="tripinfo_flow_3.5 routing_flow_3.5" vType="car" speedFactor="0.92" vaporized=""/>
    <tripinfo id="flow_3.6" depart="15.00" departLane="end4_junction_2" departPos="5.10" departSpeed="0.00" departDelay="1.00" arrival="104.00" arrivalLane="junction_end2_0" arrivalPos="486.40" arrivalSpeed="12.45" duration="89.00" routeLength="994.90" waitingTime="0.00" waitingCount="0" stopTime="0.00" timeLoss="11.77" rerouteNo="0" devices="tripinfo_flow_3.6 routing_flow_3.6" vType="car" speedFactor="0.93" vaporized=""/>
    <tripinfo id="flow_3.8" depart="17.00" departLane="end4_junction_1" departPos="5.10" departSpeed="0.00" departDelay="1.00" arrival="104.00" arrivalLane="junction_end2_1" arrivalPos="486.40" arrivalSpeed="13.33" duration="87.00" routeLength="994.90" waitingTime="0.00" waitingCount="0" stopTime="0.00" timeLoss="14.51" rerouteNo="0" devices="tripinfo_flow_3.8 routing_flow_3.8" vType="car" speedFactor="0.99" vaporized=""/>
    <tripinfo id="flow_3.9" depart="20.00" departLane="end4_junction_1" departPos="5.10" departSpeed="0.00" departDelay="3.00" arrival="106.00" arrivalLane="junction_end2_1" arrivalPos="486.40" arrivalSpeed="13.10" duration="86.00" routeLength="994.90" waitingTime="0.00" waitingCount="0" stopTime="0.00" timeLoss="15.04" rerouteNo="0" devices="tripinfo_flow_3.9 routing_flow_3.9" vType="car" speedFactor="1.02" vaporized=""/>
    <tripinfo id="flow_3.11" depart="21.00" departLane="end4_junction_0" departPos="5.10" departSpeed="0.00" departDelay="2.00" arrival="107.00" arrivalLane="junction_end2_0" arrivalPos="486.40" arrivalSpeed="13.87" duration="86.00" routeLength="994.90" waitingTime="0.00" waitingCount="0" stopTime="0.00" timeLoss="15.75" rerouteNo="0" devices="tripinfo_flow_3.11 routing_flow_3.11" vType="car" speedFactor="1.03" vaporized=""/>
    <tripinfo id="flow_3.12" depart="24.00" departLane="end4_junction_0" departPos="5.10" departSpeed="0.00" departDelay="3.00" arrival="108.00" arrivalLane="junction_end2_1" arrivalPos="486.40" arrivalSpeed="14.19" duration="84.00" routeLength="994.90" waitingTime="0.00" waitingCount="0" stopTime="0.00" timeLoss="17.30" rerouteNo="0" devices="tripinfo_flow_3.12 routing_flow_3.12" vType="car" speedFactor="1.09" vaporized=""/>
    <tripinfo id="flow_3.13" depart="27.00" departLane="end4_junction_0" departPos="5.10" departSpeed="0.00" departDelay="0.00" arrival="111.00" arrivalLane="junction_end2_0" arrivalPos="486.40" arrivalSpeed="13.50" duration="84.00" routeLength="994.90" waitingTime="0.00" waitingCount="0" stopTime="0.00" timeLoss="11.48" rerouteNo="0" devices="tripinfo_flow_3.13 routing_flow_3.13" vType="car" speedFactor="1.00" vaporized=""/>
    <tripinfo id="flow_3.15" depart="33.00" departLane="end4_junction_1" departPos="5.10" departSpeed="0.00" departDelay="0.00" arrival="114.00" arrivalLane="junction_end2_1" arrivalPos="486.40" arrivalSpeed="14.36" duration="81.00" routeLength="994.90" waitingTime="0.00" waitingCount="0" stopTime="0.00" timeLoss="11.45" rerouteNo="0" devices="tripinfo_flow_3.15 routing_flow_3.15" vType="car" speedFactor="1.04" vaporized=""/>
    <tripinfo id="flow_3.14" depart="31.00" departLane="end4_junction_2" departPos="5.10" departSpeed="0.00" departDelay="0.00" arrival="115.00" arrivalLane="junction_end2_0" arrivalPos="486.40" arrivalSpeed="12.85" duration="84.00" routeLength="994.90" waitingTime="0.00" waitingCount="0" stopTime="0.00" timeLoss="6.94" rerouteNo="0" devices="tripinfo_flow_3.14 routing_flow_3.14" vType="car" speedFactor="0.94" vaporized=""/>
    <tripinfo id="flow_3.16" depart="36.00" departLane="end4_junction_0" departPos="5.10" departSpeed="0.00" departDelay="1.00" arrival="116.00" arrivalLane="junction_end2_2" arrivalPos="486.40" arrivalSpeed="14.22" duration="80.00" routeLength="994.90" waitingTime="0.00" waitingCount="0" stopTime="0.00" timeLoss="11.19" rerouteNo="0" devices="tripinfo_flow_3.16 routing_flow_3.16" vType="car" speedFactor="1.06" vaporized=""/>
    <tripinfo id="flow_1.3" depart="26.00" departLane="end1_junction_2" departPos="5.10" departSpeed="30.00" departDelay="20.00" arrival="117.00" arrivalLane="junction_end2_2" arrivalPos="486.40" arrivalSpeed="18.48" duration="91.00" routeLength="992.21" waitingTime="36.00" waitingCount="1" stopTime="0.00" timeLoss="57.69" rerouteNo="0" devices="tripinfo_flow_1.3 routing_flow_1.3" vType="DEFAULT_VEHTYPE" speedFactor="2.16" vaporized=""/>
    <tripinfo id="flow_1.4" depart="25.00" departLane="end1_junction_1" departPos="5.10" departSpeed="30.00" departDelay="17.00" arrival="119.00" arrivalLane="junction_end2_1" arrivalPos="486.40" arrivalSpeed="25.07" duration="94.00" routeLength="992.21" waitingTime="33.00" waitingCount="1" stopTime="0.00" timeLoss="59.87" rerouteNo="0" devices="tripinfo_flow_1.4 routing_flow_1.4" vType="DEFAULT_VEHTYPE" speedFactor="2.16" vaporized=""/>
    <tripinfo id="flow_1.5" depart="36.00" departLane="end1_junction_0" departPos="5.10" departSpeed="30.00" departDelay="26.00" arrival="120.00" arrivalLane="junction_end2_2" arrivalPos="486.40" arrivalSpeed="29.57" duration="84.00" routeLength="992.21" waitingTime="28.00" waitingCount="1" stopTime="0.00" timeLoss="50.14" rerouteNo="0" devices="tripinfo_flow_1.5 routing_flow_1.5" vType="DEFAULT_VEHTYPE" speedFactor="2.16" vaporized=""/>
    <tripinfo id="flow_1.6" depart="54.00" departLane="end1_junction_1" departPos="5.10" departSpeed="30.00" departDelay="42.00" arrival="123.00" arrivalLane="junction_end2_2" arrivalPos="486.40" arrivalSpeed="29.63" duration="69.00" routeLength="992.21" waitingTime="12.00" waitingCount="1" stopTime="0.00" timeLoss="34.95" rerouteNo="0" devices="tripinfo_flow_1.6 routing_flow_1.6" vType="DEFAULT_VEHTYPE" speedFactor="2.16" vaporized=""/>
    <tripinfo id="flow_1.8" depart="56.00" departLane="end1_junction_1" departPos="5.10" departSpeed="30.00" departDelay="40.00" arrival="125.00" arrivalLane="junction_end2_2" arrivalPos="486.40" arrivalSpeed="29.00" duration="69.00" routeLength="992.21" waitingTime="12.00" waitingCount="1" stopTime="0.00" timeLoss="35.47" rerouteNo="0" devices="tripinfo_flow_1.8 routing_flow_1.8" vType="DEFAULT_VEHTYPE" speedFactor="2.16" vaporized=""/>
    <tripinfo id="flow_1.7" depart="47.00" departLane="end1_junction_0" departPos="5.10" departSpeed="30.00" departDelay="33.00" arrival="129.00" arrivalLane="junction_end2_2" arrivalPos="486.40" arrivalSpeed="29.32" duration="82.00" routeLength="992.21" waitingTime="34.00" waitingCount="1" stopTime="0.00" timeLoss="48.63" rerouteNo="0" devices="tripinfo_flow_1.7 routing_flow_1.7" vType="DEFAULT_VEHTYPE" speedFactor="2.16" vaporized=""/>
    <tripinfo id="flow_0.0" depart="1.00" departLane="end1_junction_2" departPos="5.10" departSpeed="0.00" departDelay="0.00" arrival="131.00" arrivalLane="junction_end3_0" arrivalPos="486.40" arrivalSpeed="13.91" duration="130.00" routeLength="994.90" waitingTime="47.00" waitingCount="1" stopTime="0.00" timeLoss="58.47" rerouteNo="0" devices="tripinfo_flow_0.0 routing_flow_0.0" vType="DEFAULT_VEHTYPE" speedFactor="1.01" vaporized=""/>
    <tripinfo id="flow_1.10" depart="49.00" departLane="end1_junction_0" departPos="5.10" departSpeed="30.00" departDelay="29.00" arrival="135.00" arrivalLane="junction_end2_2" arrivalPos="486.40" arrivalSpeed="29.36" duration="86.00" routeLength="992.21" waitingTime="35.00" waitingCount="1" stopTime="0.00" timeLoss="52.27" rerouteNo="0" devices="tripinfo_flow_1.10 routing_flow_1.10" vType="DEFAULT_VEHTYPE" speedFactor="2.16" vaporized=""/>
    <tripinfo id="flow_0.1" depart="6.00" departLane="end1_junction_1" departPos="5.10" departSpeed="0.00" departDelay="1.00" arrival="136.00" arrivalLane="junction_end3_1" arrivalPos="486.40" arrivalSpeed="14.01" duration="130.00" routeLength="994.90" waitingTime="43.00" waitingCount="1" stopTime="0.00" timeLoss="64.15" rerouteNo="0" devices="tripinfo_flow_0.1 routing_flow_0.1" vType="DEFAULT_VEHTYPE" speedFactor="1.09" vaporized=""/>
    <tripinfo id="flow_2.0" depart="0.00" departLane="end1_junction_0" departPos="7.20" departSpeed="0.00" departDelay="0.00" arrival="137.00" arrivalLane="junction_end3_0" arrivalPos="486.40" arrivalSpeed="13.13" duration="137.00" routeLength="992.80" waitingTime="45.00" waitingCount="1" stopTime="0.00" timeLoss="62.92" rerouteNo="0" devices="tripinfo_flow_2.0 routing_flow_2.0" vType="truck1" speedFactor="0.97" vaporized=""/>
    <tripinfo id="flow_1.9" depart="70.00" departLane="end1_junction_0" departPos="5.10" departSpeed="30.00" departDelay="52.00" arrival="139.00" arrivalLane="junction_end2_2" arrivalPos="486.40" arrivalSpeed="29.55" duration="69.00" routeLength="992.21" waitingTime="20.00" waitingCount="1" stopTime="0.00" timeLoss="35.30" rerouteNo="0" devices="tripinfo_flow_1.9 routing_flow_1.9" vType="DEFAULT_VEHTYPE" speedFactor="2.16" vaporized=""/>
    <tripinfo id="flow_2.2" depart="4.00" departLane="end1_junction_2" departPos="7.20" departSpeed="0.00" departDelay="0.00" arrival="142.00" arrivalLane="junction_end3_0" arrivalPos="486.40" arrivalSpeed="12.35" duration="138.00" routeLength="992.80" waitingTime="43.00" waitingCount="1" stopTime="0.00" timeLoss="61.01" rerouteNo="0" devices="tripinfo_flow_2.2 routing_flow_2.2" vType="truck1" speedFactor="0.93" vaporized=""/>
    <tripinfo id="flow_1.11" depart="72.00" departLane="end1_junction_0" departPos="5.10" departSpeed="30.00" departDelay="50.00" arrival="142.00" arrivalLane="junction_end2_2" arrivalPos="486.40" arrivalSpeed="29.89" duration="70.00" routeLength="992.21" waitingTime="19.00" waitingCount="3" stopTime="0.00" timeLoss="36.37" rerouteNo="0" devices="tripinfo_flow_1.11 routing_flow_1.11" vType="DEFAULT_VEHTYPE" speedFactor="2.16" vaporized=""/>
    <tripinfo id="flow_0.2" depart="8.00" departLane="end1_junction_2" departPos="5.10" departSpeed="0.00" departDelay="2.00" arrival="144.00" arrivalLane="junction_end3_1" arrivalPos="486.40" arrivalSpeed="14.25" duration="136.00" routeLength="994.90" waitingTime="42.00" waitingCount="1" stopTime="0.00" timeLoss="65.59" rerouteNo="0" devices="tripinfo_flow_0.2 routing_flow_0.2" vType="DEFAULT_VEHTYPE" speedFactor="1.03" vaporized=""/>
    <tripinfo id="flow_1.13" depart="74.00" departLane="end1_junction_0" departPos="5.10" departSpeed="30.00" departDelay="48.00" arrival="144.00" arrivalLane="junction_end2_2" arrivalPos="486.40" arrivalSpeed="28.75" duration="70.00" routeLength="992.21" waitingTime="18.00" waitingCount="2" stopTime="0.00" timeLoss="35.97" rerouteNo="0" devices="tripinfo_flow_1.13 routing_flow_1.13" vType="DEFAULT_VEHTYPE" speedFactor="2.16" vaporized=""/>
    <tripinfo id="flow_2.1" depart="4.00" departLane="end1_junction_0" departPos="7.20" departSpeed="0.00" departDelay="2.00" arrival="145.00" arrivalLane="junction_end3_0" arrivalPos="486.40" arrivalSpeed="12.70" duration="141.00" routeLength="992.80" waitingTime="43.00" waitingCount="1" stopTime="0.00" timeLoss="62.01" rerouteNo="0" devices="tripinfo_flow_2.1 routing_flow_2.1" vType="truck1" speedFactor="0.92" vaporized=""/>
    <tripinfo id="flow_1.12" depart="91.00" departLane="end1_junction_0" departPos="5.10" departSpeed="30.00" departDelay="67.00" arrival="146.00" arrivalLane="junction_end2_2" arrivalPos="486.40" arrivalSpeed="28.77" duration="55.00" routeLength="992.21" waitingTime="8.00" waitingCount="2" stopTime="0.00" timeLoss="20.97" rerouteNo="0" devices="tripinfo_flow_1.12 routing_flow_1.12" vType="DEFAULT_VEHTYPE" speedFactor="2.16" vaporized=""/>
    <tripinfo id="flow_2.4" depart="8.00" departLane="end1_junction_0" departPos="7.20" departSpeed="0.00" departDelay="0.00" arrival="149.00" arrivalLane="junction_end3_0" arrivalPos="486.40" arrivalSpeed="13.13" duration="141.00" routeLength="992.80" waitingTime="43.00" waitingCount="2" stopTime="0.00" timeLoss="66.58" rerouteNo="0" devices="tripinfo_flow_2.4 routing_flow_2.4" vType="truck1" speedFactor="0.97" vaporized=""/>
    <tripinfo id="flow_1.14" depart="97.00" departLane="end1_junction_0" departPos="5.10" departSpeed="30.00" departDelay="69.00" arrival="149.00" arrivalLane="junction_end2_2" arrivalPos="486.40" arrivalSpeed="28.89" duration="52.00" routeLength="992.21" waitingTime="8.00" waitingCount="1" stopTime="0.00" timeLoss="18.67" rerouteNo="0" devices="tripinfo_flow_1.14 routing_flow_1.14" vType="DEFAULT_VEHTYPE" speedFactor="2.16" vaporized=""/>
    <tripinfo id="flow_2.3" depart="12.00" departLane="end1_junction_2" departPos="7.20" departSpeed="0.00" departDelay="6.00" arrival="152.00" arrivalLane="junction_end3_0" arrivalPos="486.40" arrivalSpeed="14.30" duration="140.00" routeLength="992.80" waitingTime="45.00" waitingCount="3" stopTime="0.00" timeLoss="71.80" rerouteNo="0" devices="tripinfo_flow_2.3 routing_flow_2.3" vType="truck1" speedFactor="1.06" vaporized=""/>
    <tripinfo id="flow_0.6" depart="14.00" departLane="end1_junction_0" departPos="5.10" departSpeed="0.00" departDelay="3.00" arrival="161.00" arrivalLane="junction_end3_0" arrivalPos="486.40" arrivalSpeed="11.67" duration="147.00" routeLength="994.90" waitingTime="49.00" waitingCount="1" stopTime="0.00" timeLoss="66.42" rerouteNo="0" devices="tripinfo_flow_0.6 routing_flow_0.6" vType="DEFAULT_VEHTYPE" speedFactor="0.89" vaporized=""/>
    <tripinfo id="flow_0.3" depart="10.00" departLane="end1_junction_1" departPos="5.10" departSpeed="0.00" departDelay="2.00" arrival="168.00" arrivalLane="junction_end3_0" arrivalPos="486.40" arrivalSpeed="11.01" duration="158.00" routeLength="994.90" waitingTime="52.00" waitingCount="3" stopTime="0.00" timeLoss="75.73" rerouteNo="0" devices="tripinfo_flow_0.3 routing_flow_0.3" vType="DEFAULT_VEHTYPE" speedFactor="0.88" vaporized=""/>
    <tripinfo id="flow_3.17" depart="37.00" departLane="end4_junction_1" departPos="5.10" departSpeed="0.00" departDelay="0.00" arrival="176.00" arrivalLane="junction_end2_0" arrivalPos="486.40" arrivalSpeed="13.55" duration="139.00" routeLength="994.90" waitingTime="54.00" waitingCount="1" stopTime="0.00" timeLoss="67.11" rerouteNo="0" devices="tripinfo_flow_3.17 routing_flow_3.17" vType="car" speedFactor="1.01" vaporized=""/>
    <tripinfo id="flow_3.18" depart="38.00" departLane="end4_junction_2" departPos="5.10" departSpeed="0.00" departDelay="0.00" arrival="177.00" arrivalLane="junction_end2_1" arrivalPos="486.40" arrivalSpeed="13.01" duration="139.00" routeLength="994.90" waitingTime="53.00" waitingCount="1" stopTime="0.00" timeLoss="68.36" rerouteNo="0" devices="tripinfo_flow_3.18 routing_flow_3.18" vType="car" speedFactor="1.02" vaporized=""/>
    <tripinfo id="flow_3.35" depart="66.00" departLane="end4_junction_2" departPos="5.10" departSpeed="0.00" departDelay="0.00" arrival="179.00" arrivalLane="junction_end2_0" arrivalPos="486.40" arrivalSpeed="14.53" duration="113.00" routeLength="994.90" waitingTime="33.00" waitingCount="2" stopTime="0.00" timeLoss="48.06" rerouteNo="0" devices="tripinfo_flow_3.35 routing_flow_3.35" vType="car" speedFactor="1.11" vaporized=""/>
    <tripinfo id="flow_3.20" depart="43.00" departLane="end4_junction_2" departPos="5.10" departSpeed="0.00" departDelay="3.00" arrival="181.00" arrivalLane="junction_end2_0" arrivalPos="486.40" arrivalSpeed="13.60" duration="138.00" routeLength="994.90" waitingTime="54.00" waitingCount="2" stopTime="0.00" timeLoss="69.20" rerouteNo="0" devices="tripinfo_flow_3.20 routing_flow_3.20" vType="car" speedFactor="1.04" vaporized=""/>
    <tripinfo id="flow_3.47" depart="88.00" departLane="end4_junction_2" departPos="5.10" departSpeed="0.00" departDelay="0.00" arrival="187.00" arrivalLane="junction_end2_0" arrivalPos="486.40" arrivalSpeed="11.94" duration="99.00" routeLength="994.90" waitingTime="11.00" waitingCount="2" stopTime="0.00" timeLoss="22.91" rerouteNo="0" devices="tripinfo_flow_3.47 routing_flow_3.47" vType="car" speedFactor="0.94" vaporized=""/>
    <tripinfo id="flow_3.19" depart="40.00" departLane="end4_junction_1" departPos="5.10" departSpeed="0.00" departDelay="1.00" arrival="189.00" arrivalLane="junction_end2_1" arrivalPos="486.40" arrivalSpeed="12.74" duration="149.00" routeLength="994.90" waitingTime="53.00" waitingCount="2" stopTime="0.00" timeLoss="74.41" rerouteNo="0" devices="tripinfo_flow_3.19 routing_flow_3.19" vType="car" speedFactor="0.97" vaporized=""/>
    <tripinfo id="flow_3.21" depart="42.00" departLane="end4_junction_0" departPos="5.10" departSpeed="0.00" departDelay="1.00" arrival="190.00" arrivalLane="junction_end2_0" arrivalPos="486.40" arrivalSpeed="12.91" duration="148.00" routeLength="994.90" waitingTime="52.00" waitingCount="2" stopTime="0.00" timeLoss="76.44" rerouteNo="0" devices="tripinfo_flow_3.21 routing_flow_3.21" vType="car" speedFactor="1.01" vaporized=""/>
    <tripinfo id="flow_3.23" depart="44.00" departLane="end4_junction_1" departPos="5.10" departSpeed="0.00" departDelay="0.00" arrival="191.00" arrivalLane="junction_end2_1" arrivalPos="486.40" arrivalSpeed="14.36" duration="147.00" routeLength="994.90" waitingTime="53.00" waitingCount="2" stopTime="0.00" timeLoss="81.30" rerouteNo="0" devices="tripinfo_flow_3.23 routing_flow_3.23" vType="car" speedFactor="1.09" vaporized=""/>
    <tripinfo id="flow_3.50" depart="94.00" departLane="end4_junction_2" departPos="5.10" departSpeed="0.00" departDelay="3.00" arrival="193.00" arrivalLane="junction_end2_0" arrivalPos="486.40" arrivalSpeed="13.45" duration="99.00" routeLength="994.90" waitingTime="12.00" waitingCount="2" stopTime="0.00" timeLoss="24.49" rerouteNo="0" devices="tripinfo_flow_3.50 routing_flow_3.50" vType="car" speedFactor="0.97" vaporized=""/>
    <tripinfo id="flow_3.55" depart="101.00" departLane="end4_junction_2" departPos="5.10" departSpeed="0.00" departDelay="1.00" arrival="195.00" arrivalLane="junction_end2_0" arrivalPos="486.40" arrivalSpeed="13.99" duration="94.00" routeLength="994.90" waitingTime="9.00" waitingCount="3" stopTime="0.00" timeLoss="24.22" rerouteNo="0" devices="tripinfo_flow_3.55 routing_flow_3.55" vType="car" speedFactor="1.04" vaporized=""/>
    <tripinfo id="flow_3.64" depart="114.00" departLane="end4_junction_2" departPos="5.10" departSpeed="0.00" departDelay="0.00" arrival="198.00" arrivalLane="junction_end2_0" arrivalPos="486.40" arrivalSpeed="14.46" duration="84.00" routeLength="994.90" waitingTime="5.00" waitingCount="3" stopTime="0.00" timeLoss="17.93" rerouteNo="0" devices="tripinfo_flow_3.64 routing_flow_3.64" vType="car" speedFactor="1.10" vaporized=""/>
    <tripinfo id="flow_3.24" depart="47.00" departLane="end4_junction_1" departPos="5.10" departSpeed="0.00" departDelay="1.00" arrival="200.00" arrivalLane="junction_end2_1" arrivalPos="486.40" arrivalSpeed="14.27" duration="153.00" routeLength="994.90" waitingTime="56.00" waitingCount="3" stopTime="0.00" timeLoss="86.93" rerouteNo="0" devices="tripinfo_flow_3.24 routing_flow_3.24" vType="car" speedFactor="1.10" vaporized=""/>
    <tripinfo id="flow_3.28" depart="53.00" departLane="end4_junction_2" departPos="5.10" departSpeed="0.00" departDelay="0.00" arrival="202.00" arrivalLane="junction_end2_1" arrivalPos="486.40" arrivalSpeed="14.80" duration="149.00" routeLength="994.90" waitingTime="55.00" waitingCount="3" stopTime="0.00" timeLoss="82.88" rerouteNo="0" devices="tripinfo_flow_3.28 routing_flow_3.28" vType="car" speedFactor="1.10" vaporized=""/>
    <tripinfo id="flow_3.22" depart="45.00" departLane="end4_junction_0" departPos="5.10" departSpeed="0.00" departDelay="3.00" arrival="203.00" arrivalLane="junction_end2_0" arrivalPos="486.40" arrivalSpeed="11.96" duration="158.00" routeLength="994.90" waitingTime="55.00" waitingCount="2" stopTime="0.00" timeLoss="77.37" rerouteNo="0" devices="tripinfo_flow_3.22 routing_flow_3.22" vType="car" speedFactor="0.89" vaporized=""/>
    <tripinfo id="flow_1.15" depart="99.00" departLane="end1_junction_0" departPos="5.10" departSpeed="30.00" departDelay="69.00" arrival="204.00" arrivalLane="junction_end2_2" arrivalPos="486.40" arrivalSpeed="29.27" duration="105.00" routeLength="992.21" waitingTime="49.00" waitingCount="3" stopTime="0.00" timeLoss="71.32" rerouteNo="0" devices="tripinfo_flow_1.15 routing_flow_1.15" vType="DEFAULT_VEHTYPE" speedFactor="2.16" vaporized=""/>
    <tripinfo id="flow_1.19" depart="101.00" departLane="end1_junction_0" departPos="5.10" departSpeed="30.00" departDelay="63.00" arrival="207.00" arrivalLane="junction_end2_2" arrivalPos="486.40" arrivalSpeed="29.55" duration="106.00" routeLength="992.21" waitingTime="43.00" waitingCount="2" stopTime="0.00" timeLoss="72.66" rerouteNo="0" devices="tripinfo_flow_1.19 routing_flow_1.19" vType="DEFAULT_VEHTYPE" speedFactor="2.16" vaporized=""/>
    <tripinfo id="flow_3.73" depart="125.00" departLane="end4_junction_0" departPos="5.10" departSpeed="0.00" departDelay="1.00" arrival="208.00" arrivalLane="junction_end2_0" arrivalPos="486.40" arrivalSpeed="12.07" duration="83.00" routeLength="994.90" waitingTime="0.00" waitingCount="0" stopTime="0.00" timeLoss="7.72" rerouteNo="0" devices="tripinfo_flow_3.73 routing_flow_3.73" vType="car" speedFactor="0.96" vaporized=""/>
    <tripinfo id="flow_1.17" depart="103.00" departLane="end1_junction_0" departPos="5.10" departSpeed="30.00" departDelay="69.00" arrival="209.00" arrivalLane="junction_end2_2" arrivalPos="486.40" arrivalSpeed="29.63" duration="106.00" routeLength="992.21" waitingTime="47.00" waitingCount="2" stopTime="0.00" timeLoss="72.04" rerouteNo="0" devices="tripinfo_flow_1.17 routing_flow_1.17" vType="DEFAULT_VEHTYPE" speedFactor="2.16" vaporized=""/>
    <tripinfo id="flow_0.4" depart="14.00" departLane="end1_junction_1" departPos="5.10" departSpeed="0.00" departDelay="5.00" arrival="216.00" arrivalLane="junction_end3_0" arrivalPos="486.40" arrivalSpeed="15.82" duration="202.00" routeLength="994.90" waitingTime="100.00" waitingCount="3" stopTime="0.00" timeLoss="139.99" rerouteNo="0" devices="tripinfo_flow_0.4 routing_flow_0.4" vType="DEFAULT_VEHTYPE" speedFactor="1.16" vaporized=""/>
    <tripinfo id="flow_1.16" depart="108.00" departLane="end1_junction_0" departPos="5.10" departSpeed="30.00" departDelay="76.00" arrival="219.00" arrivalLane="junction_end2_2" arrivalPos="486.40" arrivalSpeed="29.52" duration="111.00" routeLength="992.21" waitingTime="46.00" waitingCount="3" stopTime="0.00" timeLoss="77.44" rerouteNo="0" devices="tripinfo_flow_1.16 routing_flow_1.16" vType="DEFAULT_VEHTYPE" speedFactor="2.16" vaporized=""/>
    <tripinfo id="flow_1.20" depart="124.00" departLane="end1_junction_2" departPos="5.10" departSpeed="30.00" departDelay="84.00" arrival="221.00" arrivalLane="junction_end2_2" arrivalPos="486.40" arrivalSpeed="29.74" duration="97.00" routeLength="992.21" waitingTime="30.00" waitingCount="1" stopTime="0.00" timeLoss="62.93" rerouteNo="0" devices="tripinfo_flow_1.20 routing_flow_1.20" vType="DEFAULT_VEHTYPE" speedFactor="2.16" vaporized=""/>
    <tripinfo id="flow_0.22" depart="89.00" departLane="end1_junction_2" departPos="5.10" departSpeed="0.00" departDelay="52.00" arrival="223.00" arrivalLane="junction_end3_0" arrivalPos="486.40" arrivalSpeed="12.59" duration="134.00" routeLength="994.90" waitingTime="47.00" waitingCount="1" stopTime="0.00" timeLoss="61.06" rerouteNo="0" devices="tripinfo_flow_0.22 routing_flow_0.22" vType="DEFAULT_VEHTYPE" speedFactor="0.98" vaporized=""/>
    <tripinfo id="flow_1.22" depart="126.00" departLane="end1_junction_2" departPos="5.10" departSpeed="30.00" departDelay="82.00" arrival="225.00" arrivalLane="junction_end2_2" arrivalPos="486.40" arrivalSpeed="28.90" duration="99.00" routeLength="992.21" waitingTime="29.00" waitingCount="1" stopTime="0.00" timeLoss="65.19" rerouteNo="0" devices="tripinfo_flow_1.22 routing_flow_1.22" vType="DEFAULT_VEHTYPE" speedFactor="2.16" vaporized=""/>
    <tripinfo id="flow_0.5" depart="18.00" departLane="end1_junction_0" departPos="5.10" departSpeed="0.00" departDelay="8.00" arrival="228.00" arrivalLane="junction_end3_1" arrivalPos="486.40" arrivalSpeed="13.44" duration="210.00" routeLength="994.90" waitingTime="98.00" waitingCount="3" stopTime="0.00" timeLoss="139.24" rerouteNo="0" devices="tripinfo_flow_0.5 routing_flow_0.5" vType="DEFAULT_VEHTYPE" speedFactor="1.02" vaporized=""/>