<?xml version="1.0" encoding="UTF-8"?>

<!-- generated on 2022-01-17 20:47:34 by Eclipse SUMO sumo Version 1.11.0
<configuration xmlns:xsi="http://www.w3.org/2001/XMLSchema-instance" xsi:noNamespaceSchemaLocation="http://sumo.dlr.de/xsd/sumoConfiguration.xsd">

    <input>
        <net-file value="draft.net.xml"/>
        <route-files value="draft.rou.xml"/>
    </input>

    <output>
        <summary-output value="sum.xml"/>
        <tripinfo-output value="tripinfo.xml"/>
    </output>

    <time>
        <end value="900"/>
    </time>

    <processing>
        <time-to-teleport value="-1"/>
    </processing>

    <report>
        <no-warnings value="true"/>
    </report>

    <traci_server>
        <remote-port value="53676"/>
    </traci_server>

    <gui_only>
        <gui-settings-file value="flick.cfg"/>
        <quit-on-end value="true"/>
        <start value="true"/>
    </gui_only>

</configuration>
-->

<tripinfos xmlns:xsi="http://www.w3.org/2001/XMLSchema-instance" xsi:noNamespaceSchemaLocation="http://sumo.dlr.de/xsd/tripinfo_file.xsd">
    <tripinfo id="flow43c.0" depart="5.00" departLane="end4_junction_1" departPos="5.10" departSpeed="0.00" departDelay="0.00" arrival="75.00" arrivalLane="junction_end3_0" arrivalPos="486.40" arrivalSpeed="15.40" duration="70.00" routeLength="976.73" waitingTime="0.00" waitingCount="0" stopTime="0.00" timeLoss="8.49" rerouteNo="0" devices="tripinfo_flow43c.0 routing_flow43c.0" vType="car1" speedFactor="1.16" vaporized=""/>
    <tripinfo id="flow14c.0" depart="0.00" departLane="end1_junction_2" departPos="5.10" departSpeed="0.00" departDelay="0.00" arrival="76.00" arrivalLane="junction_end4_0" arrivalPos="486.40" arrivalSpeed="14.12" duration="76.00" routeLength="976.73" waitingTime="0.00" waitingCount="0" stopTime="0.00" timeLoss="8.57" rerouteNo="0" devices="tripinfo_flow14c.0 routing_flow14c.0" vType="car1" speedFactor="1.06" vaporized=""/>
    <tripinfo id="flow21t.0" depart="1.00" departLane="end2_junction_1" departPos="7.20" departSpeed="0.00" departDelay="0.00" arrival="81.00" arrivalLane="junction_end1_0" arrivalPos="486.40" arrivalSpeed="14.11" duration="80.00" routeLength="974.63" waitingTime="0.00" waitingCount="0" stopTime="0.00" timeLoss="10.56" rerouteNo="0" devices="tripinfo_flow21t.0 routing_flow21t.0" vType="truck1" speedFactor="1.02" vaporized=""/>
    <tripinfo id="flow14t.0" depart="0.00" departLane="end1_junction_1" departPos="7.20" departSpeed="0.00" departDelay="0.00" arrival="84.00" arrivalLane="junction_end4_0" arrivalPos="486.40" arrivalSpeed="13.30" duration="84.00" routeLength="974.63" waitingTime="0.00" waitingCount="0" stopTime="0.00" timeLoss="10.57" rerouteNo="0" devices="tripinfo_flow14t.0 routing_flow14t.0" vType="truck1" speedFactor="0.97" vaporized=""/>
    <tripinfo id="flow14t.1" depart="2.00" departLane="end1_junction_0" departPos="7.20" departSpeed="0.00" departDelay="0.00" arrival="84.00" arrivalLane="junction_end4_1" arrivalPos="486.40" arrivalSpeed="14.24" duration="82.00" routeLength="974.63" waitingTime="0.00" waitingCount="0" stopTime="0.00" timeLoss="13.77" rerouteNo="0" devices="tripinfo_flow14t.1 routing_flow14t.1" vType="truck1" speedFactor="1.05" vaporized=""/>
    <tripinfo id="flow21t.1" depart="5.00" departLane="end2_junction_1" departPos="7.20" departSpeed="0.00" departDelay="1.00" arrival="89.00" arrivalLane="junction_end1_0" arrivalPos="486.40" arrivalSpeed="12.91" duration="84.00" routeLength="974.63" waitingTime="0.00" waitingCount="0" stopTime="0.00" timeLoss="10.27" rerouteNo="0" devices="tripinfo_flow21t.1 routing_flow21t.1" vType="truck1" speedFactor="0.96" vaporized=""/>
    <tripinfo id="flow21t.2" depart="9.00" departLane="end2_junction_2" departPos="7.20" departSpeed="0.00" departDelay="0.00" arrival="90.00" arrivalLane="junction_end1_1" arrivalPos="486.40" arrivalSpeed="14.68" duration="81.00" routeLength="974.63" waitingTime="0.00" waitingCount="0" stopTime="0.00" timeLoss="15.80" rerouteNo="0" devices="tripinfo_flow21t.2 routing_flow21t.2" vType="truck1" speedFactor="1.09" vaporized=""/>
    <tripinfo id="flow21c.0" depart="5.00" departLane="end2_junction_0" departPos="5.10" departSpeed="0.00" departDelay="1.00" arrival="91.00" arrivalLane="junction_end1_0" arrivalPos="486.40" arrivalSpeed="12.99" duration="86.00" routeLength="976.73" waitingTime="0.00" waitingCount="0" stopTime="0.00" timeLoss="14.26" rerouteNo="0" devices="tripinfo_flow21c.0 routing_flow21c.0" vType="car1" speedFactor="0.99" vaporized=""/>
    <tripinfo id="flow34c.0" depart="2.00" departLane="end3_junction_0" departPos="5.10" departSpeed="0.00" departDelay="0.00" arrival="95.00" arrivalLane="junction_end4_1" arrivalPos="486.40" arrivalSpeed="13.35" duration="93.00" routeLength="992.21" waitingTime="10.00" waitingCount="1" stopTime="0.00" timeLoss="21.99" rerouteNo="0" devices="tripinfo_flow34c.0 routing_flow34c.0" vType="car1" speedFactor="1.03" vaporized=""/>
    <tripinfo id="flow32t.0" depart="10.00" departLane="end3_junction_0" departPos="7.20" departSpeed="0.00" departDelay="3.00" arrival="95.00" arrivalLane="junction_end2_0" arrivalPos="486.40" arrivalSpeed="13.28" duration="85.00" routeLength="974.63" waitingTime="0.00" waitingCount="0" stopTime="0.00" timeLoss="11.02" rerouteNo="0" devices="tripinfo_flow32t.0 routing_flow32t.0" vType="truck1" speedFactor="0.96" vaporized=""/>
    <tripinfo id="flow14t.2" depart="9.00" departLane="end1_junction_1" departPos="7.20" departSpeed="0.00" departDelay="3.00" arrival="96.00" arrivalLane="junction_end4_0" arrivalPos="486.40" arrivalSpeed="13.39" duration="87.00" routeLength="974.63" waitingTime="0.00" waitingCount="0" stopTime="0.00" timeLoss="16.28" rerouteNo="0" devices="tripinfo_flow14t.2 routing_flow14t.2" vType="truck1" speedFactor="1.01" vaporized=""/>
    <tripinfo id="flow12t.0" depart="13.00" departLane="end1_junction_2" departPos="7.20" departSpeed="0.00" departDelay="7.00" arrival="97.00" arrivalLane="junction_end2_2" arrivalPos="486.40" arrivalSpeed="13.95" duration="84.00" routeLength="990.11" waitingTime="0.00" waitingCount="0" stopTime="0.00" timeLoss="12.57" rerouteNo="0" devices="tripinfo_flow12t.0 routing_flow12t.0" vType="truck1" speedFactor="1.01" vaporized=""/>
    <tripinfo id="flow12c.0" depart="3.00" departLane="end1_junction_2" departPos="5.10" departSpeed="0.00" departDelay="1.00" arrival="98.00" arrivalLane="junction_end2_0" arrivalPos="486.40" arrivalSpeed="12.79" duration="95.00" routeLength="992.21" waitingTime="6.00" waitingCount="1" stopTime="0.00" timeLoss="17.43" rerouteNo="0" devices="tripinfo_flow12c.0 routing_flow12c.0" vType="car1" speedFactor="0.94" vaporized=""/>
    <tripinfo id="flow12c.1" depart="13.00" departLane="end1_junction_1" departPos="5.10" departSpeed="0.00" departDelay="2.00" arrival="99.00" arrivalLane="junction_end2_1" arrivalPos="486.40" arrivalSpeed="14.33" duration="86.00" routeLength="992.21" waitingTime="0.00" waitingCount="0" stopTime="0.00" timeLoss="19.98" rerouteNo="0" devices="tripinfo_flow12c.1 routing_flow12c.1" vType="car1" speedFactor="1.10" vaporized=""/>
    <tripinfo id="flow34t.0" depart="5.00" departLane="end3_junction_0" departPos="7.20" departSpeed="0.00" departDelay="0.00" arrival="100.00" arrivalLane="junction_end4_1" arrivalPos="486.40" arrivalSpeed="13.11" duration="95.00" routeLength="990.11" waitingTime="6.00" waitingCount="1" stopTime="0.00" timeLoss="20.49" rerouteNo="0" devices="tripinfo_flow34t.0 routing_flow34t.0" vType="truck1" speedFactor="0.97" vaporized=""/>
    <tripinfo id="flow14c.1" depart="6.00" departLane="end1_junction_0" departPos="5.10" departSpeed="0.00" departDelay="5.00" arrival="101.00" arrivalLane="junction_end4_0" arrivalPos="486.40" arrivalSpeed="10.50" duration="95.00" routeLength="976.73" waitingTime="0.00" waitingCount="0" stopTime="0.00" timeLoss="9.37" rerouteNo="0" devices="tripinfo_flow14c.1 routing_flow14c.1" vType="car1" speedFactor="0.83" vaporized=""/>
    <tripinfo id="flow12c.2" depart="20.00" departLane="end1_junction_1" departPos="5.10" departSpeed="0.00" departDelay="6.00" arrival="101.00" arrivalLane="junction_end2_2" arrivalPos="486.40" arrivalSpeed="14.38" duration="81.00" routeLength="992.21" waitingTime="0.00" waitingCount="0" stopTime="0.00" timeLoss="14.72" rerouteNo="0" devices="tripinfo_flow12c.2 routing_flow12c.2" vType="car1" speedFactor="1.09" vaporized=""/>
    <tripinfo id="flow43c.1" depart="8.00" departLane="end4_junction_2" departPos="5.10" departSpeed="0.00" departDelay="2.00" arrival="102.00" arrivalLane="junction_end3_0" arrivalPos="486.40" arrivalSpeed="11.49" duration="94.00" routeLength="976.73" waitingTime="0.00" waitingCount="0" stopTime="0.00" timeLoss="11.67" rerouteNo="0" devices="tripinfo_flow43c.1 routing_flow43c.1" vType="car1" speedFactor="0.87" vaporized=""/>
    <tripinfo id="flow34t.1" depart="8.00" departLane="end3_junction_2" departPos="7.20" departSpeed="0.00" departDelay="0.00" arrival="102.00" arrivalLane="junction_end4_1" arrivalPos="486.40" arrivalSpeed="12.95" duration="94.00" routeLength="990.11" waitingTime="3.00" waitingCount="1" stopTime="0.00" timeLoss="19.42" rerouteNo="0" devices="tripinfo_flow34t.1 routing_flow34t.1" vType="truck1" speedFactor="0.97" vaporized=""/>
    <tripinfo id="flow12c.3" depart="21.00" departLane="end1_junction_0" departPos="5.10" departSpeed="0.00" departDelay="2.00" arrival="102.00" arrivalLane="junction_end2_0" arrivalPos="486.40" arrivalSpeed="12.90" duration="81.00" routeLength="992.21" waitingTime="0.00" waitingCount="0" stopTime="0.00" timeLoss="8.42" rerouteNo="0" devices="tripinfo_flow12c.3 routing_flow12c.3" vType="car1" speedFactor="1.00" vaporized=""/>
    <tripinfo id="flow43t.0" depart="22.00" departLane="end4_junction_1" departPos="7.20" departSpeed="0.00" departDelay="1.00" arrival="102.00" arrivalLane="junction_end3_1" arrivalPos="486.40" arrivalSpeed="13.86" duration="80.00" routeLength="974.63" waitingTime="0.00" waitingCount="0" stopTime="0.00" timeLoss="11.90" rerouteNo="0" devices="tripinfo_flow43t.0 routing_flow43t.0" vType="truck1" speedFactor="1.04" vaporized=""/>
    <tripinfo id="flow14t.3" depart="16.00" departLane="end1_junction_1" departPos="7.20" departSpeed="0.00" departDelay="3.00" arrival="103.00" arrivalLane="junction_end4_0" arrivalPos="486.40" arrivalSpeed="12.64" duration="87.00" routeLength="974.63" waitingTime="0.00" waitingCount="0" stopTime="0.00" timeLoss="14.46" rerouteNo="0" devices="tripinfo_flow14t.3 routing_flow14t.3" vType="truck1" speedFactor="0.98" vaporized=""/>
    <tripinfo id="flow21c.1" depart="11.00" departLane="end2_junction_0" departPos="5.10" departSpeed="0.00" departDelay="1.00" arrival="106.00" arrivalLane="junction_end1_0" arrivalPos="486.40" arrivalSpeed="13.65" duration="95.00" routeLength="976.73" waitingTime="0.00" waitingCount="0" stopTime="0.00" timeLoss="25.33" rerouteNo="0" devices="tripinfo_flow21c.1 routing_flow21c.1" vType="car1" speedFactor="1.02" vaporized=""/>
    <tripinfo id="flow43t.1" depart="28.00" departLane="end4_junction_2" departPos="7.20" departSpeed="0.00" departDelay="0.00" arrival="110.00" arrivalLane="junction_end3_0" arrivalPos="486.40" arrivalSpeed="13.73" duration="82.00" routeLength="974.63" waitingTime="0.00" waitingCount="0" stopTime="0.00" timeLoss="10.29" rerouteNo="0" devices="tripinfo_flow43t.1 routing_flow43t.1" vType="truck1" speedFactor="1.00" vaporized=""/>
    <tripinfo id="flow34c.1" depart="16.00" departLane="end3_junction_2" departPos="5.10" departSpeed="0.00" departDelay="0.00" arrival="111.00" arrivalLane="junction_end4_0" arrivalPos="486.40" arrivalSpeed="11.60" duration="95.00" routeLength="992.21" waitingTime="0.00" waitingCount="0" stopTime="0.00" timeLoss="9.84" rerouteNo="0" devices="tripinfo_flow34c.1 routing_flow34c.1" vType="car1" speedFactor="0.85" vaporized=""/>
    <tripinfo id="flow34c.2" depart="30.00" departLane="end3_junction_0" departPos="5.10" departSpeed="0.00" departDelay="0.00" arrival="111.00" arrivalLane="junction_end4_1" arrivalPos="486.40" arrivalSpeed="12.58" duration="81.00" routeLength="992.21" waitingTime="0.00" waitingCount="0" stopTime="0.00" timeLoss="7.10" rerouteNo="0" devices="tripinfo_flow34c.2 routing_flow34c.2" vType="car1" speedFactor="0.98" vaporized=""/>
    <tripinfo id="flow14c.2" depart="27.00" departLane="end1_junction_2" departPos="5.10" departSpeed="0.00" departDelay="0.00" arrival="113.00" arrivalLane="junction_end4_0" arrivalPos="486.40" arrivalSpeed="13.07" duration="86.00" routeLength="976.73" waitingTime="0.00" waitingCount="0" stopTime="0.00" timeLoss="10.57" rerouteNo="0" devices="tripinfo_flow14c.2 routing_flow14c.2" vType="car1" speedFactor="0.96" vaporized=""/>
    <tripinfo id="flow12t.1" depart="28.00" departLane="end1_junction_0" departPos="7.20" departSpeed="0.00" departDelay="1.00" arrival="116.00" arrivalLane="junction_end2_0" arrivalPos="486.40" arrivalSpeed="13.78" duration="88.00" routeLength="990.11" waitingTime="0.00" waitingCount="0" stopTime="0.00" timeLoss="15.02" rerouteNo="0" devices="tripinfo_flow12t.1 routing_flow12t.1" vType="truck1" speedFactor="0.99" vaporized=""/>
    <tripinfo id="flow43c.2" depart="40.00" departLane="end4_junction_1" departPos="5.10" departSpeed="0.00" departDelay="3.00" arrival="116.00" arrivalLane="junction_end3_0" arrivalPos="486.40" arrivalSpeed="14.51" duration="76.00" routeLength="976.73" waitingTime="0.00" waitingCount="0" stopTime="0.00" timeLoss="8.75" rerouteNo="0" devices="tripinfo_flow43c.2 routing_flow43c.2" vType="car1" speedFactor="1.07" vaporized=""/>
    <tripinfo id="flow21c.2" depart="29.00" departLane="end2_junction_2" departPos="5.10" departSpeed="0.00" departDelay="5.00" arrival="118.00" arrivalLane="junction_end1_0" arrivalPos="486.40" arrivalSpeed="11.33" duration="89.00" routeLength="976.73" waitingTime="0.00" waitingCount="0" stopTime="0.00" timeLoss="9.96" rerouteNo="0" devices="tripinfo_flow21c.2 routing_flow21c.2" vType="car1" speedFactor="0.91" vaporized=""/>
    <tripinfo id="flow14c.3" depart="33.00" departLane="end1_junction_0" departPos="5.10" departSpeed="0.00" departDelay="2.00" arrival="123.00" arrivalLane="junction_end4_0" arrivalPos="486.40" arrivalSpeed="13.79" duration="90.00" routeLength="976.73" waitingTime="0.00" waitingCount="0" stopTime="0.00" timeLoss="19.14" rerouteNo="0" devices="tripinfo_flow14c.3 routing_flow14c.3" vType="car1" speedFactor="1.00" vaporized=""/>
    <tripinfo id="flow12t.2" depart="37.00" departLane="end1_junction_0" departPos="7.20" departSpeed="0.00" departDelay="3.00" arrival="124.00" arrivalLane="junction_end2_0" arrivalPos="486.40" arrivalSpeed="13.54" duration="87.00" routeLength="990.11" waitingTime="0.00" waitingCount="0" stopTime="0.00" timeLoss="15.45" rerouteNo="0" devices="tripinfo_flow12t.2 routing_flow12t.2" vType="truck1" speedFactor="1.01" vaporized=""/>
    <tripinfo id="flow43t.2" depart="41.00" departLane="end4_junction_2" departPos="7.20" departSpeed="0.00" departDelay="1.00" arrival="126.00" arrivalLane="junction_end3_0" arrivalPos="486.40" arrivalSpeed="13.04" duration="85.00" routeLength="974.63" waitingTime="0.00" waitingCount="0" stopTime="0.00" timeLoss="10.89" rerouteNo="0" devices="tripinfo_flow43t.2 routing_flow43t.2" vType="truck1" speedFactor="0.96" vaporized=""/>
    <tripinfo id="flow41c.2" depart="9.00" departLane="end4_junction_0" departPos="5.10" departSpeed="0.00" departDelay="1.00" arrival="129.00" arrivalLane="junction_end1_1" arrivalPos="486.40" arrivalSpeed="15.40" duration="120.00" routeLength="992.21" waitingTime="41.00" waitingCount="1" stopTime="0.00" timeLoss="58.56" rerouteNo="0" devices="tripinfo_flow41c.2 routing_flow41c.2" vType="car1" speedFactor="1.18" vaporized=""/>
    <tripinfo id="flow14t.6" depart="42.00" departLane="end1_junction_2" departPos="7.20" departSpeed="0.00" departDelay="4.00" arrival="129.00" arrivalLane="junction_end4_0" arrivalPos="486.40" arrivalSpeed="13.46" duration="87.00" routeLength="974.63" waitingTime="0.00" waitingCount="0" stopTime="0.00" timeLoss="13.33" rerouteNo="0" devices="tripinfo_flow14t.6 routing_flow14t.6" vType="truck1" speedFactor="0.98" vaporized=""/>
    <tripinfo id="flow14t.4" depart="35.00" departLane="end1_junction_1" departPos="7.20" departSpeed="0.00" departDelay="8.00" arrival="130.00" arrivalLane="junction_end4_0" arrivalPos="486.40" arrivalSpeed="14.04" duration="95.00" routeLength="974.63" waitingTime="0.00" waitingCount="0" stopTime="0.00" timeLoss="25.31" rerouteNo="0" devices="tripinfo_flow14t.4 routing_flow14t.4" vType="truck1" speedFactor="1.02" vaporized=""/>
    <tripinfo id="flow23c.0" depart="0.00" departLane="end2_junction_2" departPos="5.10" departSpeed="0.00" departDelay="0.00" arrival="131.00" arrivalLane="junction_end3_0" arrivalPos="486.40" arrivalSpeed="13.48" duration="131.00" routeLength="992.21" waitingTime="47.00" waitingCount="1" stopTime="0.00" timeLoss="59.04" rerouteNo="0" devices="tripinfo_flow23c.0 routing_flow23c.0" vType="car1" speedFactor="1.01" vaporized=""/>
    <tripinfo id="flow23t.0" depart="3.00" departLane="end2_junction_2" departPos="7.20" departSpeed="0.00" departDelay="0.00" arrival="133.00" arrivalLane="junction_end3_1" arrivalPos="486.40" arrivalSpeed="14.16" duration="130.00" routeLength="990.11" waitingTime="44.00" waitingCount="1" stopTime="0.00" timeLoss="61.92" rerouteNo="0" devices="tripinfo_flow23t.0 routing_flow23t.0" vType="truck1" speedFactor="1.06" vaporized=""/>
    <tripinfo id="flow41t.0" depart="0.00" departLane="end4_junction_2" departPos="7.20" departSpeed="0.00" departDelay="0.00" arrival="136.00" arrivalLane="junction_end1_1" arrivalPos="486.40" arrivalSpeed="13.74" duration="136.00" routeLength="990.11" waitingTime="40.00" waitingCount="1" stopTime="0.00" timeLoss="65.20" rerouteNo="0" devices="tripinfo_flow41t.0 routing_flow41t.0" vType="truck1" speedFactor="1.02" vaporized=""/>
    <tripinfo id="flow41c.0" depart="1.00" departLane="end4_junction_1" departPos="5.10" departSpeed="0.00" departDelay="0.00" arrival="136.00" arrivalLane="junction_end1_0" arrivalPos="486.40" arrivalSpeed="11.17" duration="135.00" routeLength="992.21" waitingTime="42.00" waitingCount="1" stopTime="0.00" timeLoss="53.59" rerouteNo="0" devices="tripinfo_flow41c.0 routing_flow41c.0" vType="car1" speedFactor="0.89" vaporized=""/>
    <tripinfo id="flow23t.1" depart="16.00" departLane="end2_junction_2" departPos="7.20" departSpeed="0.00" departDelay="6.00" arrival="137.00" arrivalLane="junction_end3_0" arrivalPos="486.40" arrivalSpeed="13.07" duration="121.00" routeLength="990.11" waitingTime="30.00" waitingCount="1" stopTime="0.00" timeLoss="48.22" rerouteNo="0" devices="tripinfo_flow23t.1 routing_flow23t.1" vType="truck1" speedFactor="0.99" vaporized=""/>
    <tripinfo id="flow23c.1" depart="23.00" departLane="end2_junction_1" departPos="5.10" departSpeed="0.00" departDelay="1.00" arrival="139.00" arrivalLane="junction_end3_1" arrivalPos="486.40" arrivalSpeed="13.92" duration="116.00" routeLength="992.21" waitingTime="29.00" waitingCount="1" stopTime="0.00" timeLoss="45.21" rerouteNo="0" devices="tripinfo_flow23c.1 routing_flow23c.1" vType="car1" speedFactor="1.02" vaporized=""/>
    <tripinfo id="flow41c.4" depart="14.00" departLane="end4_junction_1" departPos="5.10" departSpeed="0.00" departDelay="1.00" arrival="141.00" arrivalLane="junction_end1_1" arrivalPos="486.40" arrivalSpeed="13.50" duration="127.00" routeLength="992.21" waitingTime="39.00" waitingCount="1" stopTime="0.00" timeLoss="57.33" rerouteNo="0" devices="tripinfo_flow41c.4 routing_flow41c.4" vType="car1" speedFactor="1.04" vaporized=""/>
    <tripinfo id="flow41c.1" depart="6.00" departLane="end4_junction_2" departPos="5.10" departSpeed="0.00" departDelay="0.00" arrival="144.00" arrivalLane="junction_end1_0" arrivalPos="486.40" arrivalSpeed="12.34" duration="138.00" routeLength="992.21" waitingTime="39.00" waitingCount="1" stopTime="0.00" timeLoss="57.03" rerouteNo="0" devices="tripinfo_flow41c.1 routing_flow41c.1" vType="car1" speedFactor="0.89" vaporized=""/>
    <tripinfo id="flow21t.3" depart="19.00" departLane="end2_junction_0" departPos="7.20" departSpeed="0.00" departDelay="1.00" arrival="144.00" arrivalLane="junction_end1_1" arrivalPos="486.40" arrivalSpeed="14.30" duration="125.00" routeLength="974.63" waitingTime="0.00" waitingCount="0" stopTime="0.00" timeLoss="56.94" rerouteNo="0" devices="tripinfo_flow21t.3 routing_flow21t.3" vType="truck1" speedFactor="1.05" vaporized=""/>
    <tripinfo id="flow13c.0" depart="6.00" departLane="end1_junction_2" departPos="5.10" departSpeed="0.00" departDelay="3.00" arrival="147.00" arrivalLane="junction_end3_0" arrivalPos="486.40" arrivalSpeed="13.59" duration="141.00" routeLength="994.90" waitingTime="60.00" waitingCount="1" stopTime="0.00" timeLoss="72.29" rerouteNo="0" devices="tripinfo_flow13c.0 routing_flow13c.0" vType="car1" speedFactor="1.05" vaporized=""/>
    <tripinfo id="flow21c.3" depart="31.00" departLane="end2_junction_1" departPos="5.10" departSpeed="0.00" departDelay="4.00" arrival="150.00" arrivalLane="junction_end1_0" arrivalPos="486.40" arrivalSpeed="13.58" duration="119.00" routeLength="976.73" waitingTime="0.00" waitingCount="0" stopTime="0.00" timeLoss="47.76" rerouteNo="0" devices="tripinfo_flow21c.3 routing_flow21c.3" vType="car1" speedFactor="1.01" vaporized=""/>
    <tripinfo id="flow31t.0" depart="25.00" departLane="end3_junction_2" departPos="7.20" departSpeed="0.00" departDelay="0.00" arrival="152.00" arrivalLane="junction_end1_0" arrivalPos="486.40" arrivalSpeed="13.88" duration="127.00" routeLength="992.80" waitingTime="38.00" waitingCount="1" stopTime="0.00" timeLoss="55.63" rerouteNo="0" devices="tripinfo_flow31t.0 routing_flow31t.0" vType="truck1" speedFactor="1.01" vaporized=""/>
    <tripinfo id="flow13t.0" depart="4.00" departLane="end1_junction_1" departPos="7.20" departSpeed="0.00" departDelay="2.00" arrival="156.00" arrivalLane="junction_end3_0" arrivalPos="486.40" arrivalSpeed="12.81" duration="152.00" routeLength="992.80" waitingTime="58.00" waitingCount="1" stopTime="0.00" timeLoss="74.74" rerouteNo="0" devices="tripinfo_flow13t.0 routing_flow13t.0" vType="truck1" speedFactor="0.93" vaporized=""/>
    <tripinfo id="flow14c.4" depart="46.00" departLane="end1_junction_2" departPos="5.10" departSpeed="0.00" departDelay="7.00" arrival="163.00" arrivalLane="junction_end4_1" arrivalPos="486.40" arrivalSpeed="13.65" duration="117.00" routeLength="976.73" waitingTime="1.00" waitingCount="1" stopTime="0.00" timeLoss="48.28" rerouteNo="0" devices="tripinfo_flow14c.4 routing_flow14c.4" vType="car1" speedFactor="1.03" vaporized=""/>
    <tripinfo id="flow14t.7" depart="44.00" departLane="end1_junction_1" departPos="7.20" departSpeed="0.00" departDelay="3.00" arrival="164.00" arrivalLane="junction_end4_0" arrivalPos="486.40" arrivalSpeed="12.62" duration="120.00" routeLength="974.63" waitingTime="1.00" waitingCount="1" stopTime="0.00" timeLoss="43.53" rerouteNo="0" devices="tripinfo_flow14t.7 routing_flow14t.7" vType="truck1" speedFactor="0.93" vaporized=""/>
    <tripinfo id="flow21t.4" depart="38.00" departLane="end2_junction_0" departPos="7.20" departSpeed="0.00" departDelay="3.00" arrival="165.00" arrivalLane="junction_end1_0" arrivalPos="486.40" arrivalSpeed="14.32" duration="127.00" routeLength="974.63" waitingTime="1.00" waitingCount="1" stopTime="0.00" timeLoss="58.70" rerouteNo="0" devices="tripinfo_flow21t.4 routing_flow21t.4" vType="truck1" speedFactor="1.05" vaporized=""/>
    <tripinfo id="flow42c.2" depart="15.00" departLane="end4_junction_0" departPos="5.10" departSpeed="0.00" departDelay="7.00" arrival="169.00" arrivalLane="junction_end2_0" arrivalPos="486.40" arrivalSpeed="15.63" duration="154.00" routeLength="994.90" waitingTime="78.00" waitingCount="1" stopTime="0.00" timeLoss="91.26" rerouteNo="0" devices="tripinfo_flow42c.2 routing_flow42c.2" vType="car1" speedFactor="1.15" vaporized=""/>
    <tripinfo id="flow14t.5" depart="47.00" departLane="end1_junction_0" departPos="7.20" departSpeed="0.00" departDelay="10.00" arrival="169.00" arrivalLane="junction_end4_0" arrivalPos="486.40" arrivalSpeed="12.82" duration="122.00" routeLength="974.63" waitingTime="1.00" waitingCount="1" stopTime="0.00" timeLoss="46.59" rerouteNo="0" devices="tripinfo_flow14t.5 routing_flow14t.5" vType="truck1" speedFactor="0.95" vaporized=""/>
    <tripinfo id="flow14t.8" depart="53.00" departLane="end1_junction_2" departPos="7.20" departSpeed="0.00" departDelay="10.00" arrival="169.00" arrivalLane="junction_end4_1" arrivalPos="486.40" arrivalSpeed="13.51" duration="116.00" routeLength="974.63" waitingTime="0.00" waitingCount="0" stopTime="0.00" timeLoss="45.85" rerouteNo="0" devices="tripinfo_flow14t.8 routing_flow14t.8" vType="truck1" speedFactor="1.01" vaporized=""/>
    <tripinfo id="flow14c.6" depart="51.00" departLane="end1_junction_0" departPos="5.10" departSpeed="0.00" departDelay="4.00" arrival="169.00" arrivalLane="junction_end4_2" arrivalPos="486.40" arrivalSpeed="14.32" duration="118.00" routeLength="976.73" waitingTime="4.00" waitingCount="1" stopTime="0.00" timeLoss="53.96" rerouteNo="0" devices="tripinfo_flow14c.6 routing_flow14c.6" vType="car1" speedFactor="1.12" vaporized=""/>
    <tripinfo id="flow43c.3" depart="67.00" departLane="end4_junction_0" departPos="5.10" departSpeed="0.00" departDelay="5.00" arrival="169.00" arrivalLane="junction_end3_0" arrivalPos="486.40" arrivalSpeed="14.07" duration="102.00" routeLength="976.73" waitingTime="0.00" waitingCount="0" stopTime="0.00" timeLoss="32.28" rerouteNo="0" devices="tripinfo_flow43c.3 routing_flow43c.3" vType="car1" speedFactor="1.03" vaporized=""/>
    <tripinfo id="flow14c.5" depart="55.00" departLane="end1_junction_0" departPos="5.10" departSpeed="0.00" departDelay="13.00" arrival="172.00" arrivalLane="junction_end4_2" arrivalPos="486.40" arrivalSpeed="16.09" duration="117.00" routeLength="976.73" waitingTime="2.00" waitingCount="1" stopTime="0.00" timeLoss="56.64" rerouteNo="0" devices="tripinfo_flow14c.5 routing_flow14c.5" vType="car1" speedFactor="1.18" vaporized=""/>
    <tripinfo id="flow43t.3" depart="67.00" departLane="end4_junction_1" departPos="7.20" departSpeed="0.00" departDelay="6.00" arrival="173.00" arrivalLane="junction_end3_0" arrivalPos="486.40" arrivalSpeed="13.33" duration="106.00" routeLength="974.63" waitingTime="0.00" waitingCount="0" stopTime="0.00" timeLoss="33.00" rerouteNo="0" devices="tripinfo_flow43t.3 routing_flow43t.3" vType="truck1" speedFactor="0.98" vaporized=""/>
    <tripinfo id="flow43c.4" depart="78.00" departLane="end4_junction_2" departPos="5.10" departSpeed="0.00" departDelay="0.00" arrival="176.00" arrivalLane="junction_end3_0" arrivalPos="486.40" arrivalSpeed="12.64" duration="98.00" routeLength="976.73" waitingTime="0.00" waitingCount="0" stopTime="0.00" timeLoss="25.24" rerouteNo="0" devices="tripinfo_flow43c.4 routing_flow43c.4" vType="car1" speedFactor="0.98" vaporized=""/>
    <tripinfo id="flow43c.6" depart="108.00" departLane="end4_junction_2" departPos="5.10" departSpeed="0.00" departDelay="0.00" arrival="176.00" arrivalLane="junction_end3_1" arrivalPos="486.40" arrivalSpeed="15.90" duration="68.00" routeLength="976.73" waitingTime="0.00" waitingCount="0" stopTime="0.00" timeLoss="8.16" rerouteNo="0" devices="tripinfo_flow43c.6 routing_flow43c.6" vType="car1" speedFactor="1.19" vaporized=""/>
    <tripinfo id="flow24t.0" depart="14.00" departLane="end2_junction_0" departPos="7.20" departSpeed="0.00" departDelay="2.00" arrival="177.00" arrivalLane="junction_end4_1" arrivalPos="486.40" arrivalSpeed="13.76" duration="163.00" routeLength="992.80" waitingTime="41.00" waitingCount="1" stopTime="0.00" timeLoss="91.77" rerouteNo="0" devices="tripinfo_flow24t.0 routing_flow24t.0" vType="truck1" speedFactor="1.02" vaporized=""/>
    <tripinfo id="flow24c.0" depart="20.00" departLane="end2_junction_2" departPos="5.10" departSpeed="0.00" departDelay="0.00" arrival="177.00" arrivalLane="junction_end4_0" arrivalPos="486.40" arrivalSpeed="11.88" duration="157.00" routeLength="994.90" waitingTime="64.00" waitingCount="1" stopTime="0.00" timeLoss="77.28" rerouteNo="0" devices="tripinfo_flow24c.0 routing_flow24c.0" vType="car1" speedFactor="0.90" vaporized=""/>
    <tripinfo id="flow21t.5" depart="46.00" departLane="end2_junction_0" departPos="7.20" departSpeed="0.00" departDelay="5.00" arrival="177.00" arrivalLane="junction_end1_1" arrivalPos="486.40" arrivalSpeed="14.05" duration="131.00" routeLength="974.63" waitingTime="0.00" waitingCount="0" stopTime="0.00" timeLoss="62.40" rerouteNo="0" devices="tripinfo_flow21t.5 routing_flow21t.5" vType="truck1" speedFactor="1.05" vaporized=""/>
    <tripinfo id="flow14c.7" depart="58.00" departLane="end1_junction_0" departPos="5.10" departSpeed="0.00" departDelay="7.00" arrival="179.00" arrivalLane="junction_end4_1" arrivalPos="486.40" arrivalSpeed="12.85" duration="121.00" routeLength="976.73" waitingTime="2.00" waitingCount="1" stopTime="0.00" timeLoss="49.67" rerouteNo="0" devices="tripinfo_flow14c.7 routing_flow14c.7" vType="car1" speedFactor="1.00" vaporized=""/>
    <tripinfo id="flow42c.1" depart="12.00" departLane="end4_junction_0" departPos="5.10" departSpeed="0.00" departDelay="5.00" arrival="180.00" arrivalLane="junction_end2_1" arrivalPos="486.40" arrivalSpeed="12.34" duration="168.00" routeLength="994.90" waitingTime="76.00" waitingCount="1" stopTime="0.00" timeLoss="92.47" rerouteNo="0" devices="tripinfo_flow42c.1 routing_flow42c.1" vType="car1" speedFactor="0.95" vaporized=""/>