<?xml version="1.0" encoding="UTF-8"?>

<!-- generated on 2022-01-16 14:36:44 by Eclipse SUMO GUI Version 1.11.0
<configuration xmlns:xsi="http://www.w3.org/2001/XMLSchema-instance" xsi:noNamespaceSchemaLocation="http://sumo.dlr.de/xsd/sumoConfiguration.xsd">

    <input>
        <net-file value="draft.net.xml"/>
        <route-files value="draft.rou.xml"/>
    </input>

    <output>
        <summary-output value="sum.xml"/>
        <tripinfo-output value="tripinfo.xml"/>
    </output>

    <traci_server>
        <remote-port value="51266"/>
    </traci_server>

    <gui_only>
        <gui-settings-file value="flick.cfg"/>
        <quit-on-end value="true"/>
        <start value="true"/>
    </gui_only>

</configuration>
-->

<tripinfos xmlns:xsi="http://www.w3.org/2001/XMLSchema-instance" xsi:noNamespaceSchemaLocation="http://sumo.dlr.de/xsd/tripinfo_file.xsd">
    <tripinfo id="flow14c.0" depart="0.00" departLane="end1_junction_2" departPos="5.10" departSpeed="0.00" departDelay="0.00" arrival="72.00" arrivalLane="junction_end4_0" arrivalPos="486.40" arrivalSpeed="14.57" duration="72.00" routeLength="976.73" waitingTime="0.00" waitingCount="0" stopTime="0.00" timeLoss="4.81" rerouteNo="0" devices="tripinfo_flow14c.0 routing_flow14c.0" vType="car1" speedFactor="1.06" vaporized=""/>
    <tripinfo id="flow12c.0" depart="2.00" departLane="end1_junction_0" departPos="5.10" departSpeed="0.00" departDelay="0.00" arrival="72.00" arrivalLane="junction_end2_1" arrivalPos="486.40" arrivalSpeed="14.99" duration="70.00" routeLength="992.21" waitingTime="0.00" waitingCount="0" stopTime="0.00" timeLoss="3.43" rerouteNo="0" devices="tripinfo_flow12c.0 routing_flow12c.0" vType="car1" speedFactor="1.09" vaporized=""/>
    <tripinfo id="flow34c.1" depart="2.00" departLane="end3_junction_1" departPos="5.10" departSpeed="0.00" departDelay="0.00" arrival="73.00" arrivalLane="junction_end4_2" arrivalPos="486.40" arrivalSpeed="15.49" duration="71.00" routeLength="992.21" waitingTime="0.00" waitingCount="0" stopTime="0.00" timeLoss="6.86" rerouteNo="0" devices="tripinfo_flow34c.1 routing_flow34c.1" vType="car1" speedFactor="1.12" vaporized=""/>
    <tripinfo id="flow34c.0" depart="0.00" departLane="end3_junction_2" departPos="5.10" departSpeed="0.00" departDelay="0.00" arrival="74.00" arrivalLane="junction_end4_1" arrivalPos="486.40" arrivalSpeed="14.21" duration="74.00" routeLength="992.21" waitingTime="0.00" waitingCount="0" stopTime="0.00" timeLoss="3.24" rerouteNo="0" devices="tripinfo_flow34c.0 routing_flow34c.0" vType="car1" speedFactor="1.03" vaporized=""/>
    <tripinfo id="flow43c.0" depart="5.00" departLane="end4_junction_2" departPos="5.10" departSpeed="0.00" departDelay="0.00" arrival="80.00" arrivalLane="junction_end3_0" arrivalPos="486.40" arrivalSpeed="13.87" duration="75.00" routeLength="976.73" waitingTime="0.00" waitingCount="0" stopTime="0.00" timeLoss="4.33" rerouteNo="0" devices="tripinfo_flow43c.0 routing_flow43c.0" vType="car1" speedFactor="1.01" vaporized=""/>
    <tripinfo id="flow14t.0" depart="0.00" departLane="end1_junction_1" departPos="7.20" departSpeed="0.00" departDelay="0.00" arrival="81.00" arrivalLane="junction_end4_0" arrivalPos="486.40" arrivalSpeed="13.38" duration="81.00" routeLength="974.63" waitingTime="0.00" waitingCount="0" stopTime="0.00" timeLoss="7.45" rerouteNo="0" devices="tripinfo_flow14t.0 routing_flow14t.0" vType="truck1" speedFactor="0.97" vaporized=""/>
    <tripinfo id="flow34c.2" depart="11.00" departLane="end3_junction_0" departPos="5.10" departSpeed="0.00" departDelay="3.00" arrival="82.00" arrivalLane="junction_end4_2" arrivalPos="486.40" arrivalSpeed="16.04" duration="71.00" routeLength="992.21" waitingTime="0.00" waitingCount="0" stopTime="0.00" timeLoss="9.09" rerouteNo="0" devices="tripinfo_flow34c.2 routing_flow34c.2" vType="car1" speedFactor="1.17" vaporized=""/>
    <tripinfo id="flow14t.1" depart="4.00" departLane="end1_junction_2" departPos="7.20" departSpeed="0.00" departDelay="2.00" arrival="83.00" arrivalLane="junction_end4_0" arrivalPos="486.40" arrivalSpeed="14.16" duration="79.00" routeLength="974.63" waitingTime="0.00" waitingCount="0" stopTime="0.00" timeLoss="8.99" rerouteNo="0" devices="tripinfo_flow14t.1 routing_flow14t.1" vType="truck1" speedFactor="1.02" vaporized=""/>
    <tripinfo id="flow34t.0" depart="5.00" departLane="end3_junction_1" departPos="7.20" departSpeed="0.00" departDelay="0.00" arrival="83.00" arrivalLane="junction_end4_1" arrivalPos="486.40" arrivalSpeed="13.98" duration="78.00" routeLength="990.11" waitingTime="0.00" waitingCount="0" stopTime="0.00" timeLoss="6.67" rerouteNo="0" devices="tripinfo_flow34t.0 routing_flow34t.0" vType="truck1" speedFactor="1.01" vaporized=""/>
    <tripinfo id="flow21t.0" depart="1.00" departLane="end2_junction_1" departPos="7.20" departSpeed="0.00" departDelay="0.00" arrival="84.00" arrivalLane="junction_end1_0" arrivalPos="486.40" arrivalSpeed="13.07" duration="83.00" routeLength="974.63" waitingTime="0.00" waitingCount="0" stopTime="0.00" timeLoss="7.41" rerouteNo="0" devices="tripinfo_flow21t.0 routing_flow21t.0" vType="truck1" speedFactor="0.94" vaporized=""/>
    <tripinfo id="flow32t.0" depart="9.00" departLane="end3_junction_1" departPos="7.20" departSpeed="0.00" departDelay="2.00" arrival="86.00" arrivalLane="junction_end2_1" arrivalPos="486.40" arrivalSpeed="15.09" duration="77.00" routeLength="974.63" waitingTime="0.00" waitingCount="0" stopTime="0.00" timeLoss="11.88" rerouteNo="0" devices="tripinfo_flow32t.0 routing_flow32t.0" vType="truck1" speedFactor="1.09" vaporized=""/>
    <tripinfo id="flow21c.0" depart="4.00" departLane="end2_junction_2" departPos="5.10" departSpeed="0.00" departDelay="0.00" arrival="89.00" arrivalLane="junction_end1_0" arrivalPos="486.40" arrivalSpeed="11.98" duration="85.00" routeLength="976.73" waitingTime="0.00" waitingCount="0" stopTime="0.00" timeLoss="4.11" rerouteNo="0" devices="tripinfo_flow21c.0 routing_flow21c.0" vType="car1" speedFactor="0.88" vaporized=""/>
    <tripinfo id="flow21t.1" depart="7.00" departLane="end2_junction_1" departPos="7.20" departSpeed="0.00" departDelay="3.00" arrival="89.00" arrivalLane="junction_end1_1" arrivalPos="486.40" arrivalSpeed="13.46" duration="82.00" routeLength="974.63" waitingTime="0.00" waitingCount="0" stopTime="0.00" timeLoss="8.05" rerouteNo="0" devices="tripinfo_flow21t.1 routing_flow21t.1" vType="truck1" speedFactor="0.97" vaporized=""/>
    <tripinfo id="flow32c.0" depart="8.00" departLane="end3_junction_0" departPos="5.10" departSpeed="0.00" departDelay="1.00" arrival="89.00" arrivalLane="junction_end2_0" arrivalPos="486.40" arrivalSpeed="12.75" duration="81.00" routeLength="976.73" waitingTime="0.00" waitingCount="0" stopTime="0.00" timeLoss="4.22" rerouteNo="0" devices="tripinfo_flow32c.0 routing_flow32c.0" vType="car1" speedFactor="0.93" vaporized=""/>
    <tripinfo id="flow14t.2" depart="9.00" departLane="end1_junction_2" departPos="7.20" departSpeed="0.00" departDelay="3.00" arrival="92.00" arrivalLane="junction_end4_0" arrivalPos="486.40" arrivalSpeed="13.10" duration="83.00" routeLength="974.63" waitingTime="0.00" waitingCount="0" stopTime="0.00" timeLoss="7.46" rerouteNo="0" devices="tripinfo_flow14t.2 routing_flow14t.2" vType="truck1" speedFactor="0.94" vaporized=""/>
    <tripinfo id="flow34t.1" depart="13.00" departLane="end3_junction_2" departPos="7.20" departSpeed="0.00" departDelay="5.00" arrival="92.00" arrivalLane="junction_end4_1" arrivalPos="486.40" arrivalSpeed="13.81" duration="79.00" routeLength="990.11" waitingTime="0.00" waitingCount="0" stopTime="0.00" timeLoss="6.08" rerouteNo="0" devices="tripinfo_flow34t.1 routing_flow34t.1" vType="truck1" speedFactor="1.00" vaporized=""/>
    <tripinfo id="flow34c.3" depart="24.00" departLane="end3_junction_2" departPos="5.10" departSpeed="0.00" departDelay="8.00" arrival="95.00" arrivalLane="junction_end4_1" arrivalPos="486.40" arrivalSpeed="14.98" duration="71.00" routeLength="992.21" waitingTime="0.00" waitingCount="0" stopTime="0.00" timeLoss="3.63" rerouteNo="0" devices="tripinfo_flow34c.3 routing_flow34c.3" vType="car1" speedFactor="1.08" vaporized=""/>
    <tripinfo id="flow21c.1" depart="11.00" departLane="end2_junction_1" departPos="5.10" departSpeed="0.00" departDelay="1.00" arrival="98.00" arrivalLane="junction_end1_0" arrivalPos="486.40" arrivalSpeed="15.07" duration="87.00" routeLength="976.73" waitingTime="0.00" waitingCount="0" stopTime="0.00" timeLoss="22.04" rerouteNo="0" devices="tripinfo_flow21c.1 routing_flow21c.1" vType="car1" speedFactor="1.09" vaporized=""/>
    <tripinfo id="flow32c.1" depart="17.00" departLane="end3_junction_0" departPos="5.10" departSpeed="0.00" departDelay="1.00" arrival="99.00" arrivalLane="junction_end2_0" arrivalPos="486.40" arrivalSpeed="13.22" duration="82.00" routeLength="976.73" waitingTime="0.00" waitingCount="0" stopTime="0.00" timeLoss="8.09" rerouteNo="0" devices="tripinfo_flow32c.1 routing_flow32c.1" vType="car1" speedFactor="0.97" vaporized=""/>
    <tripinfo id="flow23c.0" depart="0.00" departLane="end2_junction_2" departPos="5.10" departSpeed="0.00" departDelay="0.00" arrival="102.00" arrivalLane="junction_end3_0" arrivalPos="486.40" arrivalSpeed="13.90" duration="102.00" routeLength="992.21" waitingTime="24.00" waitingCount="1" stopTime="0.00" timeLoss="30.09" rerouteNo="0" devices="tripinfo_flow23c.0 routing_flow23c.0" vType="car1" speedFactor="1.01" vaporized=""/>
    <tripinfo id="flow23t.0" depart="4.00" departLane="end2_junction_0" departPos="7.20" departSpeed="0.00" departDelay="1.00" arrival="106.00" arrivalLane="junction_end3_0" arrivalPos="486.40" arrivalSpeed="13.78" duration="102.00" routeLength="990.11" waitingTime="17.00" waitingCount="1" stopTime="0.00" timeLoss="29.63" rerouteNo="0" devices="tripinfo_flow23t.0 routing_flow23t.0" vType="truck1" speedFactor="1.00" vaporized=""/>
    <tripinfo id="flow23t.2" depart="13.00" departLane="end2_junction_0" departPos="7.20" departSpeed="0.00" departDelay="0.00" arrival="106.00" arrivalLane="junction_end3_1" arrivalPos="486.40" arrivalSpeed="15.01" duration="93.00" routeLength="990.11" waitingTime="13.00" waitingCount="1" stopTime="0.00" timeLoss="26.36" rerouteNo="0" devices="tripinfo_flow23t.2 routing_flow23t.2" vType="truck1" speedFactor="1.08" vaporized=""/>
    <tripinfo id="flow41t.0" depart="0.00" departLane="end4_junction_1" departPos="7.20" departSpeed="0.00" departDelay="0.00" arrival="108.00" arrivalLane="junction_end1_1" arrivalPos="486.40" arrivalSpeed="12.61" duration="108.00" routeLength="990.11" waitingTime="18.00" waitingCount="1" stopTime="0.00" timeLoss="28.76" rerouteNo="0" devices="tripinfo_flow41t.0 routing_flow41t.0" vType="truck1" speedFactor="0.92" vaporized=""/>
    <tripinfo id="flow41c.0" depart="8.00" departLane="end4_junction_1" departPos="5.10" departSpeed="0.00" departDelay="7.00" arrival="109.00" arrivalLane="junction_end1_2" arrivalPos="486.40" arrivalSpeed="12.95" duration="101.00" routeLength="992.21" waitingTime="11.00" waitingCount="1" stopTime="0.00" timeLoss="23.37" rerouteNo="0" devices="tripinfo_flow41c.0 routing_flow41c.0" vType="car1" speedFactor="0.94" vaporized=""/>
    <tripinfo id="flow21t.2" depart="14.00" departLane="end2_junction_1" departPos="7.20" departSpeed="0.00" departDelay="5.00" arrival="109.00" arrivalLane="junction_end1_0" arrivalPos="486.40" arrivalSpeed="13.19" duration="95.00" routeLength="974.63" waitingTime="0.00" waitingCount="0" stopTime="0.00" timeLoss="19.73" rerouteNo="0" devices="tripinfo_flow21t.2 routing_flow21t.2" vType="truck1" speedFactor="0.95" vaporized=""/>
    <tripinfo id="flow23t.1" depart="15.00" departLane="end2_junction_2" departPos="7.20" departSpeed="0.00" departDelay="5.00" arrival="109.00" arrivalLane="junction_end3_0" arrivalPos="486.40" arrivalSpeed="14.13" duration="94.00" routeLength="990.11" waitingTime="7.00" waitingCount="1" stopTime="0.00" timeLoss="23.29" rerouteNo="0" devices="tripinfo_flow23t.1 routing_flow23t.1" vType="truck1" speedFactor="1.02" vaporized=""/>
    <tripinfo id="flow41t.1" depart="12.00" departLane="end4_junction_2" departPos="7.20" departSpeed="0.00" departDelay="4.00" arrival="110.00" arrivalLane="junction_end1_2" arrivalPos="486.40" arrivalSpeed="14.01" duration="98.00" routeLength="990.11" waitingTime="10.00" waitingCount="1" stopTime="0.00" timeLoss="31.98" rerouteNo="0" devices="tripinfo_flow41t.1 routing_flow41t.1" vType="truck1" speedFactor="1.09" vaporized=""/>
    <tripinfo id="flow41c.2" depart="16.00" departLane="end4_junction_2" departPos="5.10" departSpeed="0.00" departDelay="8.00" arrival="111.00" arrivalLane="junction_end1_1" arrivalPos="486.40" arrivalSpeed="14.08" duration="95.00" routeLength="992.21" waitingTime="10.00" waitingCount="1" stopTime="0.00" timeLoss="23.57" rerouteNo="0" devices="tripinfo_flow41c.2 routing_flow41c.2" vType="car1" speedFactor="1.02" vaporized=""/>
    <tripinfo id="flow23c.1" depart="25.00" departLane="end2_junction_1" departPos="5.10" departSpeed="0.00" departDelay="3.00" arrival="111.00" arrivalLane="junction_end3_0" arrivalPos="486.40" arrivalSpeed="13.96" duration="86.00" routeLength="992.21" waitingTime="3.00" waitingCount="1" stopTime="0.00" timeLoss="14.96" rerouteNo="0" devices="tripinfo_flow23c.1 routing_flow23c.1" vType="car1" speedFactor="1.02" vaporized=""/>
    <tripinfo id="flow21c.3" depart="29.00" departLane="end2_junction_2" departPos="5.10" departSpeed="0.00" departDelay="2.00" arrival="111.00" arrivalLane="junction_end1_0" arrivalPos="486.40" arrivalSpeed="13.02" duration="82.00" routeLength="976.73" waitingTime="0.00" waitingCount="0" stopTime="0.00" timeLoss="6.47" rerouteNo="0" devices="tripinfo_flow21c.3 routing_flow21c.3" vType="car1" speedFactor="0.95" vaporized=""/>
    <tripinfo id="flow41c.4" depart="20.00" departLane="end4_junction_0" departPos="5.10" departSpeed="0.00" departDelay="7.00" arrival="114.00" arrivalLane="junction_end1_1" arrivalPos="486.40" arrivalSpeed="15.10" duration="94.00" routeLength="992.21" waitingTime="0.00" waitingCount="0" stopTime="0.00" timeLoss="27.78" rerouteNo="0" devices="tripinfo_flow41c.4 routing_flow41c.4" vType="car1" speedFactor="1.10" vaporized=""/>
    <tripinfo id="flow23t.3" depart="25.00" departLane="end2_junction_2" departPos="7.20" departSpeed="0.00" departDelay="4.00" arrival="114.00" arrivalLane="junction_end3_0" arrivalPos="486.40" arrivalSpeed="13.85" duration="89.00" routeLength="990.11" waitingTime="3.00" waitingCount="1" stopTime="0.00" timeLoss="16.59" rerouteNo="0" devices="tripinfo_flow23t.3 routing_flow23t.3" vType="truck1" speedFactor="1.00" vaporized=""/>
    <tripinfo id="flow23t.4" depart="25.00" departLane="end2_junction_0" departPos="7.20" departSpeed="0.00" departDelay="1.00" arrival="115.00" arrivalLane="junction_end3_2" arrivalPos="486.40" arrivalSpeed="14.02" duration="90.00" routeLength="990.11" waitingTime="3.00" waitingCount="1" stopTime="0.00" timeLoss="18.77" rerouteNo="0" devices="tripinfo_flow23t.4 routing_flow23t.4" vType="truck1" speedFactor="1.01" vaporized=""/>
    <tripinfo id="flow41c.3" depart="19.00" departLane="end4_junction_2" departPos="5.10" departSpeed="0.00" departDelay="8.00" arrival="116.00" arrivalLane="junction_end1_0" arrivalPos="486.40" arrivalSpeed="12.43" duration="97.00" routeLength="992.21" waitingTime="8.00" waitingCount="1" stopTime="0.00" timeLoss="16.48" rerouteNo="0" devices="tripinfo_flow41c.3 routing_flow41c.3" vType="car1" speedFactor="0.90" vaporized=""/>
    <tripinfo id="flow23c.2" depart="31.00" departLane="end2_junction_1" departPos="5.10" departSpeed="0.00" departDelay="2.00" arrival="117.00" arrivalLane="junction_end3_0" arrivalPos="486.40" arrivalSpeed="14.32" duration="86.00" routeLength="992.21" waitingTime="2.00" waitingCount="1" stopTime="0.00" timeLoss="15.61" rerouteNo="0" devices="tripinfo_flow23c.2 routing_flow23c.2" vType="car1" speedFactor="1.03" vaporized=""/>
    <tripinfo id="flow41c.1" depart="6.00" departLane="end4_junction_0" departPos="5.10" departSpeed="0.00" departDelay="0.00" arrival="119.00" arrivalLane="junction_end1_0" arrivalPos="486.40" arrivalSpeed="12.01" duration="113.00" routeLength="992.21" waitingTime="2.00" waitingCount="1" stopTime="0.00" timeLoss="30.16" rerouteNo="0" devices="tripinfo_flow41c.1 routing_flow41c.1" vType="car1" speedFactor="0.87" vaporized=""/>
    <tripinfo id="flow41c.5" depart="23.00" departLane="end4_junction_0" departPos="5.10" departSpeed="0.00" departDelay="7.00" arrival="119.00" arrivalLane="junction_end1_1" arrivalPos="486.40" arrivalSpeed="13.93" duration="96.00" routeLength="992.21" waitingTime="0.00" waitingCount="0" stopTime="0.00" timeLoss="24.88" rerouteNo="0" devices="tripinfo_flow41c.5 routing_flow41c.5" vType="car1" speedFactor="1.02" vaporized=""/>
    <tripinfo id="flow14t.3" depart="15.00" departLane="end1_junction_0" departPos="7.20" departSpeed="0.00" departDelay="2.00" arrival="121.00" arrivalLane="junction_end4_0" arrivalPos="486.40" arrivalSpeed="12.81" duration="106.00" routeLength="974.63" waitingTime="0.00" waitingCount="0" stopTime="0.00" timeLoss="29.79" rerouteNo="0" devices="tripinfo_flow14t.3 routing_flow14t.3" vType="truck1" speedFactor="0.93" vaporized=""/>
    <tripinfo id="flow14c.2" depart="31.00" departLane="end1_junction_0" departPos="5.10" departSpeed="0.00" departDelay="0.00" arrival="128.00" arrivalLane="junction_end4_0" arrivalPos="486.40" arrivalSpeed="15.09" duration="97.00" routeLength="976.73" waitingTime="0.00" waitingCount="0" stopTime="0.00" timeLoss="31.29" rerouteNo="0" devices="tripinfo_flow14c.2 routing_flow14c.2" vType="car1" speedFactor="1.10" vaporized=""/>
    <tripinfo id="flow14c.1" depart="27.00" departLane="end1_junction_2" departPos="5.10" departSpeed="0.00" departDelay="0.00" arrival="132.00" arrivalLane="junction_end4_0" arrivalPos="486.40" arrivalSpeed="14.69" duration="105.00" routeLength="976.73" waitingTime="0.00" waitingCount="0" stopTime="0.00" timeLoss="38.18" rerouteNo="0" devices="tripinfo_flow14c.1 routing_flow14c.1" vType="car1" speedFactor="1.07" vaporized=""/>
    <tripinfo id="flow43c.1" depart="9.00" departLane="end4_junction_0" departPos="5.10" departSpeed="0.00" departDelay="3.00" arrival="134.00" arrivalLane="junction_end3_0" arrivalPos="486.40" arrivalSpeed="12.99" duration="125.00" routeLength="976.73" waitingTime="0.00" waitingCount="0" stopTime="0.00" timeLoss="50.28" rerouteNo="0" devices="tripinfo_flow43c.1 routing_flow43c.1" vType="car1" speedFactor="0.95" vaporized=""/>
    <tripinfo id="flow23t.5" depart="31.00" departLane="end2_junction_0" departPos="7.20" departSpeed="0.00" departDelay="4.00" arrival="138.00" arrivalLane="junction_end3_0" arrivalPos="486.40" arrivalSpeed="13.12" duration="107.00" routeLength="990.11" waitingTime="0.00" waitingCount="0" stopTime="0.00" timeLoss="30.79" rerouteNo="0" devices="tripinfo_flow23t.5 routing_flow23t.5" vType="truck1" speedFactor="0.95" vaporized=""/>
    <tripinfo id="flow23t.6" depart="34.00" departLane="end2_junction_2" departPos="7.20" departSpeed="0.00" departDelay="0.00" arrival="138.00" arrivalLane="junction_end3_2" arrivalPos="486.40" arrivalSpeed="13.98" duration="104.00" routeLength="990.11" waitingTime="0.00" waitingCount="0" stopTime="0.00" timeLoss="32.88" rerouteNo="0" devices="tripinfo_flow23t.6 routing_flow23t.6" vType="truck1" speedFactor="1.01" vaporized=""/>
    <tripinfo id="flow23c.4" depart="37.00" departLane="end2_junction_0" departPos="5.10" departSpeed="0.00" departDelay="0.00" arrival="139.00" arrivalLane="junction_end3_1" arrivalPos="486.40" arrivalSpeed="16.92" duration="102.00" routeLength="992.21" waitingTime="0.00" waitingCount="0" stopTime="0.00" timeLoss="42.79" rerouteNo="0" devices="tripinfo_flow23c.4 routing_flow23c.4" vType="car1" speedFactor="1.23" vaporized=""/>
    <tripinfo id="flow23c.3" depart="38.00" departLane="end2_junction_1" departPos="5.10" departSpeed="0.00" departDelay="2.00" arrival="140.00" arrivalLane="junction_end3_1" arrivalPos="486.40" arrivalSpeed="13.89" duration="102.00" routeLength="992.21" waitingTime="0.00" waitingCount="0" stopTime="0.00" timeLoss="30.42" rerouteNo="0" devices="tripinfo_flow23c.3 routing_flow23c.3" vType="car1" speedFactor="1.01" vaporized=""/>
    <tripinfo id="flow21t.3" depart="18.00" departLane="end2_junction_0" departPos="7.20" departSpeed="0.00" departDelay="0.00" arrival="143.00" arrivalLane="junction_end1_0" arrivalPos="486.40" arrivalSpeed="13.26" duration="125.00" routeLength="974.63" waitingTime="0.00" waitingCount="0" stopTime="0.00" timeLoss="49.88" rerouteNo="0" devices="tripinfo_flow21t.3 routing_flow21t.3" vType="truck1" speedFactor="0.96" vaporized=""/>
    <tripinfo id="flow23t.7" depart="40.00" departLane="end2_junction_0" departPos="7.20" departSpeed="0.00" departDelay="3.00" arrival="144.00" arrivalLane="junction_end3_1" arrivalPos="486.40" arrivalSpeed="13.92" duration="104.00" routeLength="990.11" waitingTime="0.00" waitingCount="0" stopTime="0.00" timeLoss="31.86" rerouteNo="0" devices="tripinfo_flow23t.7 routing_flow23t.7" vType="truck1" speedFactor="1.01" vaporized=""/>
    <tripinfo id="flow13t.0" depart="5.00" departLane="end1_junction_1" departPos="7.20" departSpeed="0.00" departDelay="3.00" arrival="146.00" arrivalLane="junction_end3_1" arrivalPos="486.40" arrivalSpeed="13.96" duration="141.00" routeLength="992.80" waitingTime="56.00" waitingCount="1" stopTime="0.00" timeLoss="69.54" rerouteNo="0" devices="tripinfo_flow13t.0 routing_flow13t.0" vType="truck1" speedFactor="1.01" vaporized=""/>
    <tripinfo id="flow31t.0" depart="5.00" departLane="end3_junction_2" departPos="7.20" departSpeed="0.00" departDelay="0.00" arrival="146.00" arrivalLane="junction_end1_0" arrivalPos="486.40" arrivalSpeed="14.93" duration="141.00" routeLength="992.80" waitingTime="61.00" waitingCount="2" stopTime="0.00" timeLoss="74.69" rerouteNo="0" devices="tripinfo_flow31t.0 routing_flow31t.0" vType="truck1" speedFactor="1.08" vaporized=""/>
    <tripinfo id="flow13t.1" depart="7.00" departLane="end1_junction_0" departPos="7.20" departSpeed="0.00" departDelay="2.00" arrival="149.00" arrivalLane="junction_end3_1" arrivalPos="486.40" arrivalSpeed="13.42" duration="142.00" routeLength="992.80" waitingTime="55.00" waitingCount="1" stopTime="0.00" timeLoss="67.36" rerouteNo="0" devices="tripinfo_flow13t.1 routing_flow13t.1" vType="truck1" speedFactor="0.97" vaporized=""/>
    <tripinfo id="flow31c.0" depart="18.00" departLane="end3_junction_2" departPos="5.10" departSpeed="0.00" departDelay="9.00" arrival="150.00" arrivalLane="junction_end1_0" arrivalPos="486.40" arrivalSpeed="14.22" duration="132.00" routeLength="994.90" waitingTime="51.00" waitingCount="2" stopTime="0.00" timeLoss="61.57" rerouteNo="0" devices="tripinfo_flow31c.0 routing_flow31c.0" vType="car1" speedFactor="1.03" vaporized=""/>
    <tripinfo id="flow13c.0" depart="12.00" departLane="end1_junction_1" departPos="5.10" departSpeed="0.00" departDelay="2.00" arrival="151.00" arrivalLane="junction_end3_1" arrivalPos="486.40" arrivalSpeed="13.29" duration="139.00" routeLength="994.90" waitingTime="53.00" waitingCount="1" stopTime="0.00" timeLoss="63.79" rerouteNo="0" devices="tripinfo_flow13c.0 routing_flow13c.0" vType="car1" speedFactor="0.96" vaporized=""/>
    <tripinfo id="flow24c.0" depart="9.00" departLane="end2_junction_0" departPos="5.10" departSpeed="0.00" departDelay="0.00" arrival="152.00" arrivalLane="junction_end4_0" arrivalPos="486.40" arrivalSpeed="15.30" duration="143.00" routeLength="994.90" waitingTime="66.00" waitingCount="1" stopTime="0.00" timeLoss="77.26" rerouteNo="0" devices="tripinfo_flow24c.0 routing_flow24c.0" vType="car1" speedFactor="1.10" vaporized=""/>
    <tripinfo id="flow13t.2" depart="18.00" departLane="end1_junction_2" departPos="7.20" departSpeed="0.00" departDelay="0.00" arrival="153.00" arrivalLane="junction_end3_1" arrivalPos="486.40" arrivalSpeed="13.01" duration="135.00" routeLength="992.80" waitingTime="47.00" waitingCount="1" stopTime="0.00" timeLoss="58.88" rerouteNo="0" devices="tripinfo_flow13t.2 routing_flow13t.2" vType="truck1" speedFactor="0.94" vaporized=""/>
    <tripinfo id="flow31t.1" depart="15.00" departLane="end3_junction_1" departPos="7.20" departSpeed="0.00" departDelay="0.00" arrival="154.00" arrivalLane="junction_end1_0" arrivalPos="486.40" arrivalSpeed="13.15" duration="139.00" routeLength="992.80" waitingTime="49.00" waitingCount="2" stopTime="0.00" timeLoss="63.11" rerouteNo="0" devices="tripinfo_flow31t.1 routing_flow31t.1" vType="truck1" speedFactor="0.95" vaporized=""/>
    <tripinfo id="flow32c.3" depart="33.00" departLane="end3_junction_0" departPos="5.10" departSpeed="0.00" departDelay="0.00" arrival="154.00" arrivalLane="junction_end2_0" arrivalPos="486.40" arrivalSpeed="12.99" duration="121.00" routeLength="976.73" waitingTime="0.00" waitingCount="0" stopTime="0.00" timeLoss="45.33" rerouteNo="0" devices="tripinfo_flow32c.3 routing_flow32c.3" vType="car1" speedFactor="0.94" vaporized=""/>
    <tripinfo id="flow21c.4" depart="41.00" departLane="end2_junction_1" departPos="5.10" departSpeed="0.00" departDelay="0.00" arrival="155.00" arrivalLane="junction_end1_1" arrivalPos="486.40" arrivalSpeed="14.81" duration="114.00" routeLength="976.73" waitingTime="0.00" waitingCount="0" stopTime="0.00" timeLoss="47.10" rerouteNo="0" devices="tripinfo_flow21c.4 routing_flow21c.4" vType="car1" speedFactor="1.07" vaporized=""/>
    <tripinfo id="flow32c.2" depart="33.00" departLane="end3_junction_2" departPos="5.10" departSpeed="0.00" departDelay="2.00" arrival="157.00" arrivalLane="junction_end2_0" arrivalPos="486.40" arrivalSpeed="12.71" duration="124.00" routeLength="976.73" waitingTime="0.00" waitingCount="0" stopTime="0.00" timeLoss="47.25" rerouteNo="0" devices="tripinfo_flow32c.2 routing_flow32c.2" vType="car1" speedFactor="0.92" vaporized=""/>
    <tripinfo id="flow42t.0" depart="1.00" departLane="end4_junction_2" departPos="7.20" departSpeed="0.00" departDelay="0.00" arrival="159.00" arrivalLane="junction_end2_0" arrivalPos="486.40" arrivalSpeed="12.83" duration="158.00" routeLength="992.80" waitingTime="69.00" waitingCount="1" stopTime="0.00" timeLoss="80.81" rerouteNo="0" devices="tripinfo_flow42t.0 routing_flow42t.0" vType="truck1" speedFactor="0.93" vaporized=""/>
    <tripinfo id="flow42t.1" depart="8.00" departLane="end4_junction_2" departPos="7.20" departSpeed="0.00" departDelay="3.00" arrival="159.00" arrivalLane="junction_end2_2" arrivalPos="486.40" arrivalSpeed="13.60" duration="151.00" routeLength="992.80" waitingTime="66.00" waitingCount="1" stopTime="0.00" timeLoss="78.24" rerouteNo="0" devices="tripinfo_flow42t.1 routing_flow42t.1" vType="truck1" speedFactor="0.99" vaporized=""/>
    <tripinfo id="flow43t.0" depart="31.00" departLane="end4_junction_1" departPos="7.20" departSpeed="0.00" departDelay="10.00" arrival="159.00" arrivalLane="junction_end3_2" arrivalPos="486.40" arrivalSpeed="14.37" duration="128.00" routeLength="974.63" waitingTime="0.00" waitingCount="0" stopTime="0.00" timeLoss="59.01" rerouteNo="0" devices="tripinfo_flow43t.0 routing_flow43t.0" vType="truck1" speedFactor="1.04" vaporized=""/>
    <tripinfo id="flow21c.2" depart="35.00" departLane="end2_junction_1" departPos="5.10" departSpeed="0.00" departDelay="11.00" arrival="159.00" arrivalLane="junction_end1_0" arrivalPos="486.40" arrivalSpeed="13.74" duration="124.00" routeLength="976.73" waitingTime="0.00" waitingCount="0" stopTime="0.00" timeLoss="52.82" rerouteNo="0" devices="tripinfo_flow21c.2 routing_flow21c.2" vType="car1" speedFactor="1.01" vaporized=""/>
    <tripinfo id="flow24t.0" depart="21.00" departLane="end2_junction_2" departPos="7.20" departSpeed="0.00" departDelay="9.00" arrival="160.00" arrivalLane="junction_end4_0" arrivalPos="486.40" arrivalSpeed="13.02" duration="139.00" routeLength="992.80" waitingTime="51.00" waitingCount="1" stopTime="0.00" timeLoss="62.80" rerouteNo="0" devices="tripinfo_flow24t.0 routing_flow24t.0" vType="truck1" speedFactor="0.94" vaporized=""/>
    <tripinfo id="flow42c.1" depart="12.00" departLane="end4_junction_0" departPos="5.10" departSpeed="0.00" departDelay="5.00" arrival="161.00" arrivalLane="junction_end2_1" arrivalPos="486.40" arrivalSpeed="16.00" duration="149.00" routeLength="994.90" waitingTime="54.00" waitingCount="1" stopTime="0.00" timeLoss="86.40" rerouteNo="0" devices="tripinfo_flow42c.1 routing_flow42c.1" vType="car1" speedFactor="1.15" vaporized=""/>
    <tripinfo id="flow21t.5" depart="47.00" departLane="end2_junction_1" departPos="7.20" departSpeed="0.00" departDelay="6.00" arrival="161.00" arrivalLane="junction_end1_1" arrivalPos="486.40" arrivalSpeed="14.25" duration="114.00" routeLength="974.63" waitingTime="0.00" waitingCount="0" stopTime="0.00" timeLoss="44.81" rerouteNo="0" devices="tripinfo_flow21t.5 routing_flow21t.5" vType="truck1" speedFactor="1.03" vaporized=""/>
    <tripinfo id="flow24c.1" depart="22.00" departLane="end2_junction_0" departPos="5.10" departSpeed="0.00" departDelay="2.00" arrival="162.00" arrivalLane="junction_end4_1" arrivalPos="486.40" arrivalSpeed="13.06" duration="140.00" routeLength="994.90" waitingTime="44.00" waitingCount="1" stopTime="0.00" timeLoss="64.45" rerouteNo="0" devices="tripinfo_flow24c.1 routing_flow24c.1" vType="car1" speedFactor="0.96" vaporized=""/>
    <tripinfo id="flow42c.0" depart="14.00" departLane="end4_junction_1" departPos="5.10" departSpeed="0.00" departDelay="8.00" arrival="163.00" arrivalLane="junction_end2_0" arrivalPos="486.40" arrivalSpeed="12.70" duration="149.00" routeLength="994.90" waitingTime="54.00" waitingCount="1" stopTime="0.00" timeLoss="70.91" rerouteNo="0" devices="tripinfo_flow42c.0 routing_flow42c.0" vType="car1" speedFactor="0.92" vaporized=""/>