<?xml version="1.0" encoding="UTF-8"?>

<!-- generated on 2022-01-17 21:56:20 by Eclipse SUMO sumo Version 1.11.0
<configuration xmlns:xsi="http://www.w3.org/2001/XMLSchema-instance" xsi:noNamespaceSchemaLocation="http://sumo.dlr.de/xsd/sumoConfiguration.xsd">

    <input>
        <net-file value="draft.net.xml"/>
        <route-files value="draft.rou.xml"/>
    </input>

    <output>
        <summary-output value="sum.xml"/>
        <tripinfo-output value="tripinfo.xml"/>
    </output>

    <time>
        <end value="900"/>
    </time>

    <processing>
        <time-to-teleport value="-1"/>
    </processing>

    <report>
        <no-warnings value="true"/>
    </report>

    <traci_server>
        <remote-port value="61142"/>
    </traci_server>

    <gui_only>
        <gui-settings-file value="flick.cfg"/>
        <quit-on-end value="true"/>
        <start value="true"/>
    </gui_only>

</configuration>
-->

<tripinfos xmlns:xsi="http://www.w3.org/2001/XMLSchema-instance" xsi:noNamespaceSchemaLocation="http://sumo.dlr.de/xsd/tripinfo_file.xsd">
    <tripinfo id="flow21c.0" depart="4.00" departLane="end2_junction_1" departPos="5.10" departSpeed="0.00" departDelay="0.00" arrival="80.00" arrivalLane="junction_end1_0" arrivalPos="486.40" arrivalSpeed="13.66" duration="76.00" routeLength="976.73" waitingTime="0.00" waitingCount="0" stopTime="0.00" timeLoss="7.94" rerouteNo="0" devices="tripinfo_flow21c.0 routing_flow21c.0" vType="car1" speedFactor="1.05" vaporized=""/>
    <tripinfo id="flow32t.0" depart="7.00" departLane="end3_junction_2" departPos="7.20" departSpeed="0.00" departDelay="0.00" arrival="86.00" arrivalLane="junction_end2_0" arrivalPos="486.40" arrivalSpeed="14.62" duration="79.00" routeLength="974.63" waitingTime="0.00" waitingCount="0" stopTime="0.00" timeLoss="11.70" rerouteNo="0" devices="tripinfo_flow32t.0 routing_flow32t.0" vType="truck1" speedFactor="1.06" vaporized=""/>
    <tripinfo id="flow24t.0" depart="12.00" departLane="end2_junction_0" departPos="7.20" departSpeed="0.00" departDelay="0.00" arrival="88.00" arrivalLane="junction_end4_0" arrivalPos="486.40" arrivalSpeed="14.56" duration="76.00" routeLength="992.80" waitingTime="0.00" waitingCount="0" stopTime="0.00" timeLoss="9.06" rerouteNo="0" devices="tripinfo_flow24t.0 routing_flow24t.0" vType="truck1" speedFactor="1.08" vaporized=""/>
    <tripinfo id="flow43c.1" depart="8.00" departLane="end4_junction_1" departPos="5.10" departSpeed="0.00" departDelay="2.00" arrival="89.00" arrivalLane="junction_end3_1" arrivalPos="486.40" arrivalSpeed="13.47" duration="81.00" routeLength="976.73" waitingTime="0.00" waitingCount="0" stopTime="0.00" timeLoss="12.53" rerouteNo="0" devices="tripinfo_flow43c.1 routing_flow43c.1" vType="car1" speedFactor="1.05" vaporized=""/>
    <tripinfo id="flow43c.0" depart="6.00" departLane="end4_junction_0" departPos="5.10" departSpeed="0.00" departDelay="1.00" arrival="91.00" arrivalLane="junction_end3_0" arrivalPos="486.40" arrivalSpeed="12.74" duration="85.00" routeLength="976.73" waitingTime="0.00" waitingCount="0" stopTime="0.00" timeLoss="8.97" rerouteNo="0" devices="tripinfo_flow43c.0 routing_flow43c.0" vType="car1" speedFactor="0.94" vaporized=""/>
    <tripinfo id="flow42c.0" depart="6.00" departLane="end4_junction_2" departPos="5.10" departSpeed="0.00" departDelay="0.00" arrival="92.00" arrivalLane="junction_end2_0" arrivalPos="486.40" arrivalSpeed="13.66" duration="86.00" routeLength="994.90" waitingTime="4.00" waitingCount="1" stopTime="0.00" timeLoss="16.03" rerouteNo="0" devices="tripinfo_flow42c.0 routing_flow42c.0" vType="car1" speedFactor="1.03" vaporized=""/>
    <tripinfo id="flow21t.0" depart="6.00" departLane="end2_junction_2" departPos="7.20" departSpeed="0.00" departDelay="2.00" arrival="93.00" arrivalLane="junction_end1_0" arrivalPos="486.40" arrivalSpeed="12.46" duration="87.00" routeLength="974.63" waitingTime="0.00" waitingCount="0" stopTime="0.00" timeLoss="10.91" rerouteNo="0" devices="tripinfo_flow21t.0 routing_flow21t.0" vType="truck1" speedFactor="0.94" vaporized=""/>
    <tripinfo id="flow14t.0" depart="6.00" departLane="end1_junction_0" departPos="7.20" departSpeed="0.00" departDelay="0.00" arrival="93.00" arrivalLane="junction_end4_0" arrivalPos="486.40" arrivalSpeed="12.68" duration="87.00" routeLength="974.63" waitingTime="0.00" waitingCount="0" stopTime="0.00" timeLoss="10.10" rerouteNo="0" devices="tripinfo_flow14t.0 routing_flow14t.0" vType="truck1" speedFactor="0.93" vaporized=""/>
    <tripinfo id="flow14t.1" depart="13.00" departLane="end1_junction_1" departPos="7.20" departSpeed="0.00" departDelay="0.00" arrival="95.00" arrivalLane="junction_end4_0" arrivalPos="486.40" arrivalSpeed="13.44" duration="82.00" routeLength="974.63" waitingTime="0.00" waitingCount="0" stopTime="0.00" timeLoss="11.15" rerouteNo="0" devices="tripinfo_flow14t.1 routing_flow14t.1" vType="truck1" speedFactor="1.01" vaporized=""/>
    <tripinfo id="flow42c.1" depart="9.00" departLane="end4_junction_0" departPos="5.10" departSpeed="0.00" departDelay="2.00" arrival="96.00" arrivalLane="junction_end2_0" arrivalPos="486.40" arrivalSpeed="13.25" duration="87.00" routeLength="994.90" waitingTime="0.00" waitingCount="0" stopTime="0.00" timeLoss="14.10" rerouteNo="0" devices="tripinfo_flow42c.1 routing_flow42c.1" vType="car1" speedFactor="0.99" vaporized=""/>
    <tripinfo id="flow21c.1" depart="11.00" departLane="end2_junction_1" departPos="5.10" departSpeed="0.00" departDelay="1.00" arrival="96.00" arrivalLane="junction_end1_0" arrivalPos="486.40" arrivalSpeed="12.89" duration="85.00" routeLength="976.73" waitingTime="0.00" waitingCount="0" stopTime="0.00" timeLoss="9.20" rerouteNo="0" devices="tripinfo_flow21c.1 routing_flow21c.1" vType="car1" speedFactor="0.94" vaporized=""/>
    <tripinfo id="flow42c.2" depart="15.00" departLane="end4_junction_1" departPos="5.10" departSpeed="0.00" departDelay="0.00" arrival="105.00" arrivalLane="junction_end2_0" arrivalPos="486.40" arrivalSpeed="10.91" duration="90.00" routeLength="994.90" waitingTime="0.00" waitingCount="0" stopTime="0.00" timeLoss="7.38" rerouteNo="0" devices="tripinfo_flow42c.2 routing_flow42c.2" vType="car1" speedFactor="0.87" vaporized=""/>
    <tripinfo id="flow14t.2" depart="27.00" departLane="end1_junction_2" departPos="7.20" departSpeed="0.00" departDelay="0.00" arrival="113.00" arrivalLane="junction_end4_0" arrivalPos="486.40" arrivalSpeed="12.93" duration="86.00" routeLength="974.63" waitingTime="0.00" waitingCount="0" stopTime="0.00" timeLoss="10.83" rerouteNo="0" devices="tripinfo_flow14t.2 routing_flow14t.2" vType="truck1" speedFactor="0.95" vaporized=""/>
    <tripinfo id="flow43t.0" depart="29.00" departLane="end4_junction_2" departPos="7.20" departSpeed="0.00" departDelay="1.00" arrival="113.00" arrivalLane="junction_end3_0" arrivalPos="486.40" arrivalSpeed="13.27" duration="84.00" routeLength="974.63" waitingTime="0.00" waitingCount="0" stopTime="0.00" timeLoss="10.92" rerouteNo="0" devices="tripinfo_flow43t.0 routing_flow43t.0" vType="truck1" speedFactor="0.98" vaporized=""/>
    <tripinfo id="flow34c.0" depart="2.00" departLane="end3_junction_2" departPos="5.10" departSpeed="0.00" departDelay="0.00" arrival="120.00" arrivalLane="junction_end4_0" arrivalPos="486.40" arrivalSpeed="13.83" duration="118.00" routeLength="992.21" waitingTime="36.00" waitingCount="1" stopTime="0.00" timeLoss="47.67" rerouteNo="0" devices="tripinfo_flow34c.0 routing_flow34c.0" vType="car1" speedFactor="1.03" vaporized=""/>
    <tripinfo id="flow12t.0" depart="34.00" departLane="end1_junction_1" departPos="7.20" departSpeed="0.00" departDelay="0.00" arrival="121.00" arrivalLane="junction_end2_0" arrivalPos="486.40" arrivalSpeed="12.65" duration="87.00" routeLength="990.11" waitingTime="0.00" waitingCount="0" stopTime="0.00" timeLoss="11.21" rerouteNo="0" devices="tripinfo_flow12t.0 routing_flow12t.0" vType="truck1" speedFactor="0.95" vaporized=""/>
    <tripinfo id="flow34t.0" depart="10.00" departLane="end3_junction_0" departPos="7.20" departSpeed="0.00" departDelay="2.00" arrival="127.00" arrivalLane="junction_end4_0" arrivalPos="486.40" arrivalSpeed="12.89" duration="117.00" routeLength="990.11" waitingTime="25.00" waitingCount="2" stopTime="0.00" timeLoss="40.15" rerouteNo="0" devices="tripinfo_flow34t.0 routing_flow34t.0" vType="truck1" speedFactor="0.94" vaporized=""/>
    <tripinfo id="flow34c.1" depart="17.00" departLane="end3_junction_1" departPos="5.10" departSpeed="0.00" departDelay="1.00" arrival="129.00" arrivalLane="junction_end4_1" arrivalPos="486.40" arrivalSpeed="12.96" duration="112.00" routeLength="992.21" waitingTime="21.00" waitingCount="1" stopTime="0.00" timeLoss="35.97" rerouteNo="0" devices="tripinfo_flow34c.1 routing_flow34c.1" vType="car1" speedFactor="0.95" vaporized=""/>
    <tripinfo id="flow41c.0" depart="1.00" departLane="end4_junction_0" departPos="5.10" departSpeed="0.00" departDelay="0.00" arrival="131.00" arrivalLane="junction_end1_1" arrivalPos="486.40" arrivalSpeed="14.12" duration="130.00" routeLength="992.21" waitingTime="52.00" waitingCount="1" stopTime="0.00" timeLoss="63.58" rerouteNo="0" devices="tripinfo_flow41c.0 routing_flow41c.0" vType="car1" speedFactor="1.08" vaporized=""/>
    <tripinfo id="flow23c.0" depart="0.00" departLane="end2_junction_2" departPos="5.10" departSpeed="0.00" departDelay="0.00" arrival="132.00" arrivalLane="junction_end3_0" arrivalPos="486.40" arrivalSpeed="13.45" duration="132.00" routeLength="992.21" waitingTime="52.00" waitingCount="1" stopTime="0.00" timeLoss="63.78" rerouteNo="0" devices="tripinfo_flow23c.0 routing_flow23c.0" vType="car1" speedFactor="1.06" vaporized=""/>
    <tripinfo id="flow23c.1" depart="24.00" departLane="end2_junction_0" departPos="5.10" departSpeed="0.00" departDelay="2.00" arrival="137.00" arrivalLane="junction_end3_2" arrivalPos="486.40" arrivalSpeed="15.89" duration="113.00" routeLength="992.21" waitingTime="34.00" waitingCount="1" stopTime="0.00" timeLoss="50.04" rerouteNo="0" devices="tripinfo_flow23c.1 routing_flow23c.1" vType="car1" speedFactor="1.15" vaporized=""/>
    <tripinfo id="flow23t.0" depart="14.00" departLane="end2_junction_1" departPos="7.20" departSpeed="0.00" departDelay="1.00" arrival="138.00" arrivalLane="junction_end3_0" arrivalPos="486.40" arrivalSpeed="13.48" duration="124.00" routeLength="990.11" waitingTime="35.00" waitingCount="1" stopTime="0.00" timeLoss="51.64" rerouteNo="0" devices="tripinfo_flow23t.0 routing_flow23t.0" vType="truck1" speedFactor="1.01" vaporized=""/>
    <tripinfo id="flow41t.0" depart="0.00" departLane="end4_junction_1" departPos="7.20" departSpeed="0.00" departDelay="0.00" arrival="139.00" arrivalLane="junction_end1_0" arrivalPos="486.40" arrivalSpeed="12.88" duration="139.00" routeLength="990.11" waitingTime="49.00" waitingCount="1" stopTime="0.00" timeLoss="64.71" rerouteNo="0" devices="tripinfo_flow41t.0 routing_flow41t.0" vType="truck1" speedFactor="0.97" vaporized=""/>
    <tripinfo id="flow14t.4" depart="42.00" departLane="end1_junction_1" departPos="7.20" departSpeed="0.00" departDelay="1.00" arrival="144.00" arrivalLane="junction_end4_0" arrivalPos="486.40" arrivalSpeed="13.58" duration="102.00" routeLength="974.63" waitingTime="0.00" waitingCount="0" stopTime="0.00" timeLoss="32.07" rerouteNo="0" devices="tripinfo_flow14t.4 routing_flow14t.4" vType="truck1" speedFactor="1.01" vaporized=""/>
    <tripinfo id="flow41c.1" depart="13.00" departLane="end4_junction_2" departPos="5.10" departSpeed="0.00" departDelay="0.00" arrival="145.00" arrivalLane="junction_end1_0" arrivalPos="486.40" arrivalSpeed="11.42" duration="132.00" routeLength="992.21" waitingTime="36.00" waitingCount="1" stopTime="0.00" timeLoss="50.46" rerouteNo="0" devices="tripinfo_flow41c.1 routing_flow41c.1" vType="car1" speedFactor="0.89" vaporized=""/>
    <tripinfo id="flow13c.1" depart="24.00" departLane="end1_junction_2" departPos="5.10" departSpeed="0.00" departDelay="1.00" arrival="147.00" arrivalLane="junction_end3_2" arrivalPos="486.40" arrivalSpeed="16.14" duration="123.00" routeLength="994.90" waitingTime="47.00" waitingCount="1" stopTime="0.00" timeLoss="61.11" rerouteNo="0" devices="tripinfo_flow13c.1 routing_flow13c.1" vType="car1" speedFactor="1.17" vaporized=""/>
    <tripinfo id="flow13c.0" depart="10.00" departLane="end1_junction_1" departPos="5.10" departSpeed="0.00" departDelay="0.00" arrival="151.00" arrivalLane="junction_end3_0" arrivalPos="486.40" arrivalSpeed="11.80" duration="141.00" routeLength="994.90" waitingTime="52.00" waitingCount="1" stopTime="0.00" timeLoss="64.44" rerouteNo="0" devices="tripinfo_flow13c.0 routing_flow13c.0" vType="car1" speedFactor="0.94" vaporized=""/>
    <tripinfo id="flow31t.0" depart="25.00" departLane="end3_junction_2" departPos="7.20" departSpeed="0.00" departDelay="0.00" arrival="152.00" arrivalLane="junction_end1_0" arrivalPos="486.40" arrivalSpeed="13.15" duration="127.00" routeLength="992.80" waitingTime="38.00" waitingCount="1" stopTime="0.00" timeLoss="54.13" rerouteNo="0" devices="tripinfo_flow31t.0 routing_flow31t.0" vType="truck1" speedFactor="0.99" vaporized=""/>
    <tripinfo id="flow13c.3" depart="39.00" departLane="end1_junction_1" departPos="5.10" departSpeed="0.00" departDelay="0.00" arrival="157.00" arrivalLane="junction_end3_2" arrivalPos="486.40" arrivalSpeed="13.32" duration="118.00" routeLength="994.90" waitingTime="10.00" waitingCount="1" stopTime="0.00" timeLoss="45.46" rerouteNo="0" devices="tripinfo_flow13c.3 routing_flow13c.3" vType="car1" speedFactor="1.00" vaporized=""/>
    <tripinfo id="flow13t.0" depart="54.00" departLane="end1_junction_2" departPos="7.20" departSpeed="0.00" departDelay="0.00" arrival="158.00" arrivalLane="junction_end3_1" arrivalPos="486.40" arrivalSpeed="13.95" duration="104.00" routeLength="992.80" waitingTime="9.00" waitingCount="1" stopTime="0.00" timeLoss="33.18" rerouteNo="0" devices="tripinfo_flow13t.0 routing_flow13t.0" vType="truck1" speedFactor="1.02" vaporized=""/>
    <tripinfo id="flow31c.1" depart="58.00" departLane="end3_junction_2" departPos="5.10" departSpeed="0.00" departDelay="1.00" arrival="159.00" arrivalLane="junction_end1_1" arrivalPos="486.40" arrivalSpeed="14.78" duration="101.00" routeLength="994.90" waitingTime="6.00" waitingCount="1" stopTime="0.00" timeLoss="34.40" rerouteNo="0" devices="tripinfo_flow31c.1 routing_flow31c.1" vType="car1" speedFactor="1.09" vaporized=""/>
    <tripinfo id="flow13c.2" depart="35.00" departLane="end1_junction_2" departPos="5.10" departSpeed="0.00" departDelay="0.00" arrival="160.00" arrivalLane="junction_end3_0" arrivalPos="486.40" arrivalSpeed="10.86" duration="125.00" routeLength="994.90" waitingTime="27.00" waitingCount="1" stopTime="0.00" timeLoss="40.08" rerouteNo="0" devices="tripinfo_flow13c.2 routing_flow13c.2" vType="car1" speedFactor="0.85" vaporized=""/>
    <tripinfo id="flow14t.3" depart="38.00" departLane="end1_junction_0" departPos="7.20" departSpeed="0.00" departDelay="0.00" arrival="160.00" arrivalLane="junction_end4_0" arrivalPos="486.40" arrivalSpeed="14.35" duration="122.00" routeLength="974.63" waitingTime="0.00" waitingCount="0" stopTime="0.00" timeLoss="53.25" rerouteNo="0" devices="tripinfo_flow14t.3 routing_flow14t.3" vType="truck1" speedFactor="1.05" vaporized=""/>
    <tripinfo id="flow31t.1" depart="67.00" departLane="end3_junction_2" departPos="7.20" departSpeed="0.00" departDelay="0.00" arrival="162.00" arrivalLane="junction_end1_1" arrivalPos="486.40" arrivalSpeed="14.03" duration="95.00" routeLength="992.80" waitingTime="0.00" waitingCount="0" stopTime="0.00" timeLoss="26.26" rerouteNo="0" devices="tripinfo_flow31t.1 routing_flow31t.1" vType="truck1" speedFactor="1.05" vaporized=""/>
    <tripinfo id="flow31c.0" depart="48.00" departLane="end3_junction_0" departPos="5.10" departSpeed="0.00" departDelay="0.00" arrival="163.00" arrivalLane="junction_end1_0" arrivalPos="486.40" arrivalSpeed="11.63" duration="115.00" routeLength="994.90" waitingTime="6.00" waitingCount="1" stopTime="0.00" timeLoss="35.65" rerouteNo="0" devices="tripinfo_flow31c.0 routing_flow31c.0" vType="car1" speedFactor="0.91" vaporized=""/>
    <tripinfo id="flow14t.5" depart="56.00" departLane="end1_junction_0" departPos="7.20" departSpeed="0.00" departDelay="0.00" arrival="164.00" arrivalLane="junction_end4_0" arrivalPos="486.40" arrivalSpeed="13.83" duration="108.00" routeLength="974.63" waitingTime="0.00" waitingCount="0" stopTime="0.00" timeLoss="36.92" rerouteNo="0" devices="tripinfo_flow14t.5 routing_flow14t.5" vType="truck1" speedFactor="1.00" vaporized=""/>
    <tripinfo id="flow31t.2" depart="81.00" departLane="end3_junction_0" departPos="7.20" departSpeed="0.00" departDelay="0.00" arrival="165.00" arrivalLane="junction_end1_1" arrivalPos="486.40" arrivalSpeed="14.43" duration="84.00" routeLength="992.80" waitingTime="0.00" waitingCount="0" stopTime="0.00" timeLoss="15.44" rerouteNo="0" devices="tripinfo_flow31t.2 routing_flow31t.2" vType="truck1" speedFactor="1.05" vaporized=""/>
    <tripinfo id="flow31c.2" depart="88.00" departLane="end3_junction_1" departPos="5.10" departSpeed="0.00" departDelay="0.00" arrival="167.00" arrivalLane="junction_end1_1" arrivalPos="486.40" arrivalSpeed="14.32" duration="79.00" routeLength="994.90" waitingTime="0.00" waitingCount="0" stopTime="0.00" timeLoss="11.97" rerouteNo="0" devices="tripinfo_flow31c.2 routing_flow31c.2" vType="car1" speedFactor="1.07" vaporized=""/>
    <tripinfo id="flow14c.0" depart="47.00" departLane="end1_junction_1" departPos="5.10" departSpeed="0.00" departDelay="0.00" arrival="169.00" arrivalLane="junction_end4_0" arrivalPos="486.40" arrivalSpeed="12.83" duration="122.00" routeLength="976.73" waitingTime="0.00" waitingCount="0" stopTime="0.00" timeLoss="45.69" rerouteNo="0" devices="tripinfo_flow14c.0 routing_flow14c.0" vType="car1" speedFactor="0.94" vaporized=""/>
    <tripinfo id="flow14t.6" depart="60.00" departLane="end1_junction_2" departPos="7.20" departSpeed="0.00" departDelay="2.00" arrival="169.00" arrivalLane="junction_end4_1" arrivalPos="486.40" arrivalSpeed="13.60" duration="109.00" routeLength="974.63" waitingTime="0.00" waitingCount="0" stopTime="0.00" timeLoss="38.04" rerouteNo="0" devices="tripinfo_flow14t.6 routing_flow14t.6" vType="truck1" speedFactor="1.01" vaporized=""/>
    <tripinfo id="flow21t.1" depart="36.00" departLane="end2_junction_2" departPos="7.20" departSpeed="0.00" departDelay="1.00" arrival="174.00" arrivalLane="junction_end1_0" arrivalPos="486.40" arrivalSpeed="12.88" duration="138.00" routeLength="974.63" waitingTime="0.00" waitingCount="0" stopTime="0.00" timeLoss="60.48" rerouteNo="0" devices="tripinfo_flow21t.1 routing_flow21t.1" vType="truck1" speedFactor="0.93" vaporized=""/>
    <tripinfo id="flow14c.1" depart="76.00" departLane="end1_junction_0" departPos="5.10" departSpeed="0.00" departDelay="2.00" arrival="174.00" arrivalLane="junction_end4_0" arrivalPos="486.40" arrivalSpeed="12.29" duration="98.00" routeLength="976.73" waitingTime="1.00" waitingCount="1" stopTime="0.00" timeLoss="24.13" rerouteNo="0" devices="tripinfo_flow14c.1 routing_flow14c.1" vType="car1" speedFactor="0.97" vaporized=""/>
    <tripinfo id="flow21t.2" depart="80.00" departLane="end2_junction_2" departPos="7.20" departSpeed="0.00" departDelay="0.00" arrival="181.00" arrivalLane="junction_end1_1" arrivalPos="486.40" arrivalSpeed="12.94" duration="101.00" routeLength="974.63" waitingTime="0.00" waitingCount="0" stopTime="0.00" timeLoss="27.10" rerouteNo="0" devices="tripinfo_flow21t.2 routing_flow21t.2" vType="truck1" speedFactor="0.96" vaporized=""/>
    <tripinfo id="flow21c.2" depart="52.00" departLane="end2_junction_0" departPos="5.10" departSpeed="0.00" departDelay="1.00" arrival="184.00" arrivalLane="junction_end1_2" arrivalPos="486.40" arrivalSpeed="12.39" duration="132.00" routeLength="976.73" waitingTime="0.00" waitingCount="0" stopTime="0.00" timeLoss="58.95" rerouteNo="0" devices="tripinfo_flow21c.2 routing_flow21c.2" vType="car1" speedFactor="0.97" vaporized=""/>
    <tripinfo id="flow21c.3" depart="65.00" departLane="end2_junction_2" departPos="5.10" departSpeed="0.00" departDelay="0.00" arrival="184.00" arrivalLane="junction_end1_0" arrivalPos="486.40" arrivalSpeed="10.64" duration="119.00" routeLength="976.73" waitingTime="0.00" waitingCount="0" stopTime="0.00" timeLoss="33.50" rerouteNo="0" devices="tripinfo_flow21c.3 routing_flow21c.3" vType="car1" speedFactor="0.83" vaporized=""/>
    <tripinfo id="flow43c.4" depart="111.00" departLane="end4_junction_2" departPos="5.10" departSpeed="0.00" departDelay="0.00" arrival="188.00" arrivalLane="junction_end3_1" arrivalPos="486.40" arrivalSpeed="14.19" duration="77.00" routeLength="976.73" waitingTime="0.00" waitingCount="0" stopTime="0.00" timeLoss="11.27" rerouteNo="0" devices="tripinfo_flow43c.4 routing_flow43c.4" vType="car1" speedFactor="1.08" vaporized=""/>
    <tripinfo id="flow43b.0" depart="0.00" departLane="end4_junction_2" departPos="1.70" departSpeed="0.00" departDelay="0.00" arrival="189.00" arrivalLane="junction_end3_0" arrivalPos="486.40" arrivalSpeed="4.98" duration="189.00" routeLength="980.13" waitingTime="0.00" waitingCount="0" stopTime="0.00" timeLoss="11.84" rerouteNo="0" devices="tripinfo_flow43b.0 routing_flow43b.0" vType="bike1" speedFactor="1.01" vaporized=""/>
    <tripinfo id="flow21t.3" depart="109.00" departLane="end2_junction_1" departPos="7.20" departSpeed="0.00" departDelay="1.00" arrival="191.00" arrivalLane="junction_end1_1" arrivalPos="486.40" arrivalSpeed="13.91" duration="82.00" routeLength="974.63" waitingTime="0.00" waitingCount="0" stopTime="0.00" timeLoss="12.77" rerouteNo="0" devices="tripinfo_flow21t.3 routing_flow21t.3" vType="truck1" speedFactor="1.03" vaporized=""/>
    <tripinfo id="flow43b.1" depart="3.00" departLane="end4_junction_1" departPos="1.70" departSpeed="0.00" departDelay="0.00" arrival="193.00" arrivalLane="junction_end3_0" arrivalPos="486.40" arrivalSpeed="5.04" duration="190.00" routeLength="980.13" waitingTime="0.00" waitingCount="0" stopTime="0.00" timeLoss="13.37" rerouteNo="0" devices="tripinfo_flow43b.1 routing_flow43b.1" vType="bike1" speedFactor="0.83" vaporized=""/>
    <tripinfo id="flow32t.1" depart="75.00" departLane="end3_junction_0" departPos="7.20" departSpeed="0.00" departDelay="0.00" arrival="193.00" arrivalLane="junction_end2_0" arrivalPos="486.40" arrivalSpeed="12.74" duration="118.00" routeLength="974.63" waitingTime="0.00" waitingCount="0" stopTime="0.00" timeLoss="42.48" rerouteNo="0" devices="tripinfo_flow32t.1 routing_flow32t.1" vType="truck1" speedFactor="0.95" vaporized=""/>
    <tripinfo id="flow21b.0" depart="8.00" departLane="end2_junction_2" departPos="1.70" departSpeed="0.00" departDelay="0.00" arrival="198.00" arrivalLane="junction_end1_0" arrivalPos="486.40" arrivalSpeed="5.16" duration="190.00" routeLength="980.13" waitingTime="0.00" waitingCount="0" stopTime="0.00" timeLoss="12.70" rerouteNo="0" devices="tripinfo_flow21b.0 routing_flow21b.0" vType="bike1" speedFactor="0.93" vaporized=""/>
    <tripinfo id="flow42c.3" depart="22.00" departLane="end4_junction_1" departPos="5.10" departSpeed="0.00" departDelay="0.00" arrival="201.00" arrivalLane="junction_end2_1" arrivalPos="486.40" arrivalSpeed="13.48" duration="179.00" routeLength="994.90" waitingTime="95.00" waitingCount="1" stopTime="0.00" timeLoss="106.84" rerouteNo="0" devices="tripinfo_flow42c.3 routing_flow42c.3" vType="car1" speedFactor="1.01" vaporized=""/>
    <tripinfo id="flow42c.4" depart="30.00" departLane="end4_junction_0" departPos="5.10" departSpeed="0.00" departDelay="1.00" arrival="202.00" arrivalLane="junction_end2_1" arrivalPos="486.40" arrivalSpeed="13.23" duration="172.00" routeLength="994.90" waitingTime="90.00" waitingCount="1" stopTime="0.00" timeLoss="102.82" rerouteNo="0" devices="tripinfo_flow42c.4 routing_flow42c.4" vType="car1" speedFactor="1.04" vaporized=""/>
    <tripinfo id="flow42c.5" depart="36.00" departLane="end4_junction_0" departPos="5.10" departSpeed="0.00" departDelay="0.00" arrival="204.00" arrivalLane="junction_end2_1" arrivalPos="486.40" arrivalSpeed="13.89" duration="168.00" routeLength="994.90" waitingTime="82.00" waitingCount="1" stopTime="0.00" timeLoss="97.42" rerouteNo="0" devices="tripinfo_flow42c.5 routing_flow42c.5" vType="car1" speedFactor="1.02" vaporized=""/>
    <tripinfo id="flow24c.0" depart="51.00" departLane="end2_junction_2" departPos="5.10" departSpeed="0.00" departDelay="0.00" arrival="204.00" arrivalLane="junction_end4_0" arrivalPos="486.40" arrivalSpeed="12.29" duration="153.00" routeLength="994.90" waitingTime="64.00" waitingCount="1" stopTime="0.00" timeLoss="76.20" rerouteNo="0" devices="tripinfo_flow24c.0 routing_flow24c.0" vType="car1" speedFactor="0.94" vaporized=""/>
    <tripinfo id="flow42c.6" depart="63.00" departLane="end4_junction_2" departPos="5.10" departSpeed="0.00" departDelay="3.00" arrival="206.00" arrivalLane="junction_end2_1" arrivalPos="486.40" arrivalSpeed="13.21" duration="143.00" routeLength="994.90" waitingTime="59.00" waitingCount="1" stopTime="0.00" timeLoss="73.98" rerouteNo="0" devices="tripinfo_flow42c.6 routing_flow42c.6" vType="car1" speedFactor="1.04" vaporized=""/>
    <tripinfo id="flow31b.0" depart="6.00" departLane="end3_junction_0" departPos="1.70" departSpeed="0.00" departDelay="0.00" arrival="210.00" arrivalLane="junction_end1_0" arrivalPos="486.40" arrivalSpeed="5.38" duration="204.00" routeLength="998.30" waitingTime="6.00" waitingCount="1" stopTime="0.00" timeLoss="24.20" rerouteNo="0" devices="tripinfo_flow31b.0 routing_flow31b.0" vType="bike1" speedFactor="1.09" vaporized=""/>
    <tripinfo id="flow32c.0" depart="95.00" departLane="end3_junction_0" departPos="5.10" departSpeed="0.00" departDelay="0.00" arrival="210.00" arrivalLane="junction_end2_2" arrivalPos="486.40" arrivalSpeed="16.74" duration="115.00" routeLength="976.73" waitingTime="0.00" waitingCount="0" stopTime="0.00" timeLoss="55.92" rerouteNo="0" devices="tripinfo_flow32c.0 routing_flow32c.0" vType="car1" speedFactor="1.23" vaporized=""/>
    <tripinfo id="flow43b.2" depart="23.00" departLane="end4_junction_0" departPos="1.70" departSpeed="0.00" departDelay="0.00" arrival="212.00" arrivalLane="junction_end3_0" arrivalPos="486.40" arrivalSpeed="5.34" duration="189.00" routeLength="980.13" waitingTime="0.00" waitingCount="0" stopTime="0.00" timeLoss="11.89" rerouteNo="0" devices="tripinfo_flow43b.2 routing_flow43b.2" vType="bike1" speedFactor="1.02" vaporized=""/>
    <tripinfo id="flow32c.1" depart="114.00" departLane="end3_junction_2" departPos="5.10" departSpeed="0.00" departDelay="0.00" arrival="212.00" arrivalLane="junction_end2_1" arrivalPos="486.40" arrivalSpeed="11.37" duration="98.00" routeLength="976.73" waitingTime="0.00" waitingCount="0" stopTime="0.00" timeLoss="16.39" rerouteNo="0" devices="tripinfo_flow32c.1 routing_flow32c.1" vType="car1" speedFactor="0.88" vaporized=""/>
    <tripinfo id="flow14b.0" depart="23.00" departLane="end1_junction_1" departPos="1.70" departSpeed="0.00" departDelay="0.00" arrival="213.00" arrivalLane="junction_end4_0" arrivalPos="486.40" arrivalSpeed="5.53" duration="190.00" routeLength="980.13" waitingTime="0.00" waitingCount="0" stopTime="0.00" timeLoss="13.48" rerouteNo="0" devices="tripinfo_flow14b.0 routing_flow14b.0" vType="bike1" speedFactor="0.99" vaporized=""/>
    <tripinfo id="flow21b.1" depart="26.00" departLane="end2_junction_1" departPos="1.70" departSpeed="0.00" departDelay="0.00" arrival="214.00" arrivalLane="junction_end1_0" arrivalPos="486.40" arrivalSpeed="5.42" duration="188.00" routeLength="980.13" waitingTime="0.00" waitingCount="0" stopTime="0.00" timeLoss="11.39" rerouteNo="0" devices="tripinfo_flow21b.1 routing_flow21b.1" vType="bike1" speedFactor="1.10" vaporized=""/>
    <tripinfo id="flow32t.2" depart="108.00" departLane="end3_junction_0" departPos="7.20" departSpeed="0.00" departDelay="0.00" arrival="215.00" arrivalLane="junction_end2_1" arrivalPos="486.40" arrivalSpeed="14.25" duration="107.00" routeLength="974.63" waitingTime="0.00" waitingCount="0" stopTime="0.00" timeLoss="39.73" rerouteNo="0" devices="tripinfo_flow32t.2 routing_flow32t.2" vType="truck1" speedFactor="1.06" vaporized=""/>
    <tripinfo id="flow14t.7" depart="94.00" departLane="end1_junction_1" departPos="7.20" departSpeed="0.00" departDelay="0.00" arrival="217.00" arrivalLane="junction_end4_1" arrivalPos="486.40" arrivalSpeed="13.50" duration="123.00" routeLength="974.63" waitingTime="0.00" waitingCount="0" stopTime="0.00" timeLoss="49.97" rerouteNo="0" devices="tripinfo_flow14t.7 routing_flow14t.7" vType="truck1" speedFactor="0.98" vaporized=""/>
    <tripinfo id="flow32b.0" depart="29.00" departLane="end3_junction_1" departPos="1.70" departSpeed="0.00" departDelay="0.00" arrival="218.00" arrivalLane="junction_end2_0" arrivalPos="486.40" arrivalSpeed="5.32" duration="189.00" routeLength="980.13" waitingTime="0.00" waitingCount="0" stopTime="0.00" timeLoss="11.83" rerouteNo="0" devices="tripinfo_flow32b.0 routing_flow32b.0" vType="bike1" speedFactor="1.09" vaporized=""/>
    <tripinfo id="flow14t.8" depart="124.00" departLane="end1_junction_1" departPos="7.20" departSpeed="0.00" departDelay="0.00" arrival="221.00" arrivalLane="junction_end4_1" arrivalPos="486.40" arrivalSpeed="12.87" duration="97.00" routeLength="974.63" waitingTime="0.00" waitingCount="0" stopTime="0.00" timeLoss="21.83" rerouteNo="0" devices="tripinfo_flow14t.8 routing_flow14t.8" vType="truck1" speedFactor="0.95" vaporized=""/>