<?xml version="1.0" encoding="UTF-8"?>

<!-- generated on 2022-01-16 01:03:46 by Eclipse SUMO GUI Version 1.11.0
<configuration xmlns:xsi="http://www.w3.org/2001/XMLSchema-instance" xsi:noNamespaceSchemaLocation="http://sumo.dlr.de/xsd/sumoConfiguration.xsd">

    <input>
        <net-file value="draft.net.xml"/>
        <route-files value="draft.rou.xml"/>
    </input>

    <output>
        <summary-output value="sum.xml"/>
        <tripinfo-output value="tripinfo.xml"/>
    </output>

    <traci_server>
        <remote-port value="57070"/>
    </traci_server>

    <gui_only>
        <quit-on-end value="true"/>
        <start value="true"/>
    </gui_only>

</configuration>
-->

<tripinfos xmlns:xsi="http://www.w3.org/2001/XMLSchema-instance" xsi:noNamespaceSchemaLocation="http://sumo.dlr.de/xsd/tripinfo_file.xsd">
    <tripinfo id="flow12c.0" depart="2.00" departLane="end1_junction_0" departPos="5.10" departSpeed="0.00" departDelay="0.00" arrival="72.00" arrivalLane="junction_end2_1" arrivalPos="486.40" arrivalSpeed="15.01" duration="70.00" routeLength="992.21" waitingTime="0.00" waitingCount="0" stopTime="0.00" timeLoss="3.46" rerouteNo="0" devices="tripinfo_flow12c.0 routing_flow12c.0" vType="car1" speedFactor="1.09" vaporized=""/>
    <tripinfo id="flow34c.1" depart="2.00" departLane="end3_junction_1" departPos="5.10" departSpeed="0.00" departDelay="0.00" arrival="73.00" arrivalLane="junction_end4_2" arrivalPos="486.40" arrivalSpeed="15.58" duration="71.00" routeLength="992.21" waitingTime="0.00" waitingCount="0" stopTime="0.00" timeLoss="6.83" rerouteNo="0" devices="tripinfo_flow34c.1 routing_flow34c.1" vType="car1" speedFactor="1.12" vaporized=""/>
    <tripinfo id="flow34c.0" depart="0.00" departLane="end3_junction_2" departPos="5.10" departSpeed="0.00" departDelay="0.00" arrival="74.00" arrivalLane="junction_end4_0" arrivalPos="486.40" arrivalSpeed="14.06" duration="74.00" routeLength="992.21" waitingTime="0.00" waitingCount="0" stopTime="0.00" timeLoss="3.26" rerouteNo="0" devices="tripinfo_flow34c.0 routing_flow34c.0" vType="car1" speedFactor="1.03" vaporized=""/>
    <tripinfo id="flow14c.0" depart="0.00" departLane="end1_junction_2" departPos="5.10" departSpeed="0.00" departDelay="0.00" arrival="81.00" arrivalLane="junction_end4_0" arrivalPos="486.40" arrivalSpeed="14.60" duration="81.00" routeLength="976.73" waitingTime="7.00" waitingCount="1" stopTime="0.00" timeLoss="13.77" rerouteNo="0" devices="tripinfo_flow14c.0 routing_flow14c.0" vType="car1" speedFactor="1.06" vaporized=""/>
    <tripinfo id="flow24c.0" depart="9.00" departLane="end2_junction_0" departPos="5.10" departSpeed="0.00" departDelay="0.00" arrival="81.00" arrivalLane="junction_end4_1" arrivalPos="486.40" arrivalSpeed="15.17" duration="72.00" routeLength="994.90" waitingTime="0.00" waitingCount="0" stopTime="0.00" timeLoss="6.11" rerouteNo="0" devices="tripinfo_flow24c.0 routing_flow24c.0" vType="car1" speedFactor="1.10" vaporized=""/>
    <tripinfo id="flow43c.0" depart="5.00" departLane="end4_junction_2" departPos="5.10" departSpeed="0.00" departDelay="0.00" arrival="83.00" arrivalLane="junction_end3_0" arrivalPos="486.40" arrivalSpeed="13.87" duration="78.00" routeLength="976.73" waitingTime="1.00" waitingCount="1" stopTime="0.00" timeLoss="7.11" rerouteNo="0" devices="tripinfo_flow43c.0 routing_flow43c.0" vType="car1" speedFactor="1.01" vaporized=""/>
    <tripinfo id="flow21t.0" depart="1.00" departLane="end2_junction_1" departPos="7.20" departSpeed="0.00" departDelay="0.00" arrival="86.00" arrivalLane="junction_end1_0" arrivalPos="486.40" arrivalSpeed="12.98" duration="85.00" routeLength="974.63" waitingTime="0.00" waitingCount="0" stopTime="0.00" timeLoss="9.39" rerouteNo="0" devices="tripinfo_flow21t.0 routing_flow21t.0" vType="truck1" speedFactor="0.94" vaporized=""/>
    <tripinfo id="flow42t.0" depart="1.00" departLane="end4_junction_2" departPos="7.20" departSpeed="0.00" departDelay="0.00" arrival="86.00" arrivalLane="junction_end2_0" arrivalPos="486.40" arrivalSpeed="12.88" duration="85.00" routeLength="992.80" waitingTime="0.00" waitingCount="0" stopTime="0.00" timeLoss="7.22" rerouteNo="0" devices="tripinfo_flow42t.0 routing_flow42t.0" vType="truck1" speedFactor="0.93" vaporized=""/>
    <tripinfo id="flow42t.1" depart="8.00" departLane="end4_junction_2" departPos="7.20" departSpeed="0.00" departDelay="3.00" arrival="86.00" arrivalLane="junction_end2_1" arrivalPos="486.40" arrivalSpeed="13.65" duration="78.00" routeLength="992.80" waitingTime="0.00" waitingCount="0" stopTime="0.00" timeLoss="5.39" rerouteNo="0" devices="tripinfo_flow42t.1 routing_flow42t.1" vType="truck1" speedFactor="0.99" vaporized=""/>
    <tripinfo id="flow32t.0" depart="9.00" departLane="end3_junction_1" departPos="7.20" departSpeed="0.00" departDelay="2.00" arrival="87.00" arrivalLane="junction_end2_2" arrivalPos="486.40" arrivalSpeed="15.08" duration="78.00" routeLength="974.63" waitingTime="0.00" waitingCount="0" stopTime="0.00" timeLoss="12.14" rerouteNo="0" devices="tripinfo_flow32t.0 routing_flow32t.0" vType="truck1" speedFactor="1.09" vaporized=""/>
    <tripinfo id="flow14t.0" depart="0.00" departLane="end1_junction_1" departPos="7.20" departSpeed="0.00" departDelay="0.00" arrival="88.00" arrivalLane="junction_end4_0" arrivalPos="486.40" arrivalSpeed="13.37" duration="88.00" routeLength="974.63" waitingTime="3.00" waitingCount="1" stopTime="0.00" timeLoss="14.76" rerouteNo="0" devices="tripinfo_flow14t.0 routing_flow14t.0" vType="truck1" speedFactor="0.97" vaporized=""/>
    <tripinfo id="flow23c.0" depart="0.00" departLane="end2_junction_2" departPos="5.10" departSpeed="0.00" departDelay="0.00" arrival="89.00" arrivalLane="junction_end3_0" arrivalPos="486.40" arrivalSpeed="13.79" duration="89.00" routeLength="992.21" waitingTime="8.00" waitingCount="2" stopTime="0.00" timeLoss="16.92" rerouteNo="0" devices="tripinfo_flow23c.0 routing_flow23c.0" vType="car1" speedFactor="1.01" vaporized=""/>
    <tripinfo id="flow14t.1" depart="4.00" departLane="end1_junction_2" departPos="7.20" departSpeed="0.00" departDelay="2.00" arrival="89.00" arrivalLane="junction_end4_1" arrivalPos="486.40" arrivalSpeed="14.09" duration="85.00" routeLength="974.63" waitingTime="2.00" waitingCount="1" stopTime="0.00" timeLoss="15.54" rerouteNo="0" devices="tripinfo_flow14t.1 routing_flow14t.1" vType="truck1" speedFactor="1.02" vaporized=""/>
    <tripinfo id="flow32c.0" depart="8.00" departLane="end3_junction_0" departPos="5.10" departSpeed="0.00" departDelay="1.00" arrival="89.00" arrivalLane="junction_end2_0" arrivalPos="486.40" arrivalSpeed="12.77" duration="81.00" routeLength="976.73" waitingTime="0.00" waitingCount="0" stopTime="0.00" timeLoss="4.20" rerouteNo="0" devices="tripinfo_flow32c.0 routing_flow32c.0" vType="car1" speedFactor="0.93" vaporized=""/>
    <tripinfo id="flow21c.0" depart="4.00" departLane="end2_junction_2" departPos="5.10" departSpeed="0.00" departDelay="0.00" arrival="91.00" arrivalLane="junction_end1_0" arrivalPos="486.40" arrivalSpeed="12.07" duration="87.00" routeLength="976.73" waitingTime="0.00" waitingCount="0" stopTime="0.00" timeLoss="5.25" rerouteNo="0" devices="tripinfo_flow21c.0 routing_flow21c.0" vType="car1" speedFactor="0.88" vaporized=""/>
    <tripinfo id="flow41t.0" depart="0.00" departLane="end4_junction_1" departPos="7.20" departSpeed="0.00" departDelay="0.00" arrival="92.00" arrivalLane="junction_end1_1" arrivalPos="486.40" arrivalSpeed="12.66" duration="92.00" routeLength="990.11" waitingTime="0.00" waitingCount="0" stopTime="0.00" timeLoss="12.60" rerouteNo="0" devices="tripinfo_flow41t.0 routing_flow41t.0" vType="truck1" speedFactor="0.92" vaporized=""/>
    <tripinfo id="flow41c.0" depart="8.00" departLane="end4_junction_1" departPos="5.10" departSpeed="0.00" departDelay="7.00" arrival="93.00" arrivalLane="junction_end1_2" arrivalPos="486.40" arrivalSpeed="12.81" duration="85.00" routeLength="992.21" waitingTime="0.00" waitingCount="0" stopTime="0.00" timeLoss="7.61" rerouteNo="0" devices="tripinfo_flow41c.0 routing_flow41c.0" vType="car1" speedFactor="0.94" vaporized=""/>
    <tripinfo id="flow23t.0" depart="4.00" departLane="end2_junction_0" departPos="7.20" departSpeed="0.00" departDelay="1.00" arrival="93.00" arrivalLane="junction_end3_0" arrivalPos="486.40" arrivalSpeed="13.77" duration="89.00" routeLength="990.11" waitingTime="1.00" waitingCount="1" stopTime="0.00" timeLoss="16.65" rerouteNo="0" devices="tripinfo_flow23t.0 routing_flow23t.0" vType="truck1" speedFactor="1.00" vaporized=""/>
    <tripinfo id="flow21t.1" depart="7.00" departLane="end2_junction_1" departPos="7.20" departSpeed="0.00" departDelay="3.00" arrival="93.00" arrivalLane="junction_end1_0" arrivalPos="486.40" arrivalSpeed="13.43" duration="86.00" routeLength="974.63" waitingTime="0.00" waitingCount="0" stopTime="0.00" timeLoss="12.27" rerouteNo="0" devices="tripinfo_flow21t.1 routing_flow21t.1" vType="truck1" speedFactor="0.97" vaporized=""/>
    <tripinfo id="flow23t.2" depart="13.00" departLane="end2_junction_0" departPos="7.20" departSpeed="0.00" departDelay="0.00" arrival="93.00" arrivalLane="junction_end3_1" arrivalPos="486.40" arrivalSpeed="15.01" duration="80.00" routeLength="990.11" waitingTime="0.00" waitingCount="0" stopTime="0.00" timeLoss="13.74" rerouteNo="0" devices="tripinfo_flow23t.2 routing_flow23t.2" vType="truck1" speedFactor="1.08" vaporized=""/>
    <tripinfo id="flow14t.2" depart="9.00" departLane="end1_junction_2" departPos="7.20" departSpeed="0.00" departDelay="3.00" arrival="95.00" arrivalLane="junction_end4_0" arrivalPos="486.40" arrivalSpeed="13.07" duration="86.00" routeLength="974.63" waitingTime="0.00" waitingCount="0" stopTime="0.00" timeLoss="9.76" rerouteNo="0" devices="tripinfo_flow14t.2 routing_flow14t.2" vType="truck1" speedFactor="0.94" vaporized=""/>
    <tripinfo id="flow41c.2" depart="16.00" departLane="end4_junction_2" departPos="5.10" departSpeed="0.00" departDelay="8.00" arrival="95.00" arrivalLane="junction_end1_1" arrivalPos="486.40" arrivalSpeed="14.02" duration="79.00" routeLength="992.21" waitingTime="0.00" waitingCount="0" stopTime="0.00" timeLoss="7.91" rerouteNo="0" devices="tripinfo_flow41c.2 routing_flow41c.2" vType="car1" speedFactor="1.02" vaporized=""/>
    <tripinfo id="flow41t.1" depart="12.00" departLane="end4_junction_2" departPos="7.20" departSpeed="0.00" departDelay="4.00" arrival="95.00" arrivalLane="junction_end1_2" arrivalPos="486.40" arrivalSpeed="15.13" duration="83.00" routeLength="990.11" waitingTime="0.00" waitingCount="0" stopTime="0.00" timeLoss="16.15" rerouteNo="0" devices="tripinfo_flow41t.1 routing_flow41t.1" vType="truck1" speedFactor="1.09" vaporized=""/>
    <tripinfo id="flow21c.1" depart="11.00" departLane="end2_junction_1" departPos="5.10" departSpeed="0.00" departDelay="1.00" arrival="99.00" arrivalLane="junction_end1_0" arrivalPos="486.40" arrivalSpeed="14.93" duration="88.00" routeLength="976.73" waitingTime="0.00" waitingCount="0" stopTime="0.00" timeLoss="22.20" rerouteNo="0" devices="tripinfo_flow21c.1 routing_flow21c.1" vType="car1" speedFactor="1.09" vaporized=""/>
    <tripinfo id="flow32c.1" depart="17.00" departLane="end3_junction_0" departPos="5.10" departSpeed="0.00" departDelay="1.00" arrival="99.00" arrivalLane="junction_end2_0" arrivalPos="486.40" arrivalSpeed="13.25" duration="82.00" routeLength="976.73" waitingTime="0.00" waitingCount="0" stopTime="0.00" timeLoss="8.06" rerouteNo="0" devices="tripinfo_flow32c.1 routing_flow32c.1" vType="car1" speedFactor="0.97" vaporized=""/>
    <tripinfo id="flow42c.0" depart="14.00" departLane="end4_junction_1" departPos="5.10" departSpeed="0.00" departDelay="8.00" arrival="102.00" arrivalLane="junction_end2_0" arrivalPos="486.40" arrivalSpeed="12.51" duration="88.00" routeLength="994.90" waitingTime="0.00" waitingCount="0" stopTime="0.00" timeLoss="9.74" rerouteNo="0" devices="tripinfo_flow42c.0 routing_flow42c.0" vType="car1" speedFactor="0.92" vaporized=""/>
    <tripinfo id="flow42c.1" depart="12.00" departLane="end4_junction_0" departPos="5.10" departSpeed="0.00" departDelay="5.00" arrival="102.00" arrivalLane="junction_end2_2" arrivalPos="486.40" arrivalSpeed="15.95" duration="90.00" routeLength="994.90" waitingTime="0.00" waitingCount="0" stopTime="0.00" timeLoss="27.71" rerouteNo="0" devices="tripinfo_flow42c.1 routing_flow42c.1" vType="car1" speedFactor="1.15" vaporized=""/>
    <tripinfo id="flow42c.4" depart="24.00" departLane="end4_junction_2" departPos="5.10" departSpeed="0.00" departDelay="5.00" arrival="102.00" arrivalLane="junction_end2_1" arrivalPos="486.40" arrivalSpeed="13.47" duration="78.00" routeLength="994.90" waitingTime="0.00" waitingCount="0" stopTime="0.00" timeLoss="4.20" rerouteNo="0" devices="tripinfo_flow42c.4 routing_flow42c.4" vType="car1" speedFactor="0.97" vaporized=""/>
    <tripinfo id="flow24t.0" depart="21.00" departLane="end2_junction_2" departPos="7.20" departSpeed="0.00" departDelay="9.00" arrival="103.00" arrivalLane="junction_end4_0" arrivalPos="486.40" arrivalSpeed="12.96" duration="82.00" routeLength="992.80" waitingTime="0.00" waitingCount="0" stopTime="0.00" timeLoss="5.33" rerouteNo="0" devices="tripinfo_flow24t.0 routing_flow24t.0" vType="truck1" speedFactor="0.94" vaporized=""/>
    <tripinfo id="flow42c.3" depart="21.00" departLane="end4_junction_1" departPos="5.10" departSpeed="0.00" departDelay="6.00" arrival="104.00" arrivalLane="junction_end2_1" arrivalPos="486.40" arrivalSpeed="15.70" duration="83.00" routeLength="994.90" waitingTime="0.00" waitingCount="0" stopTime="0.00" timeLoss="19.71" rerouteNo="0" devices="tripinfo_flow42c.3 routing_flow42c.3" vType="car1" speedFactor="1.14" vaporized=""/>
    <tripinfo id="flow41c.3" depart="19.00" departLane="end4_junction_2" departPos="5.10" departSpeed="0.00" departDelay="8.00" arrival="108.00" arrivalLane="junction_end1_0" arrivalPos="486.40" arrivalSpeed="12.27" duration="89.00" routeLength="992.21" waitingTime="2.00" waitingCount="1" stopTime="0.00" timeLoss="8.37" rerouteNo="0" devices="tripinfo_flow41c.3 routing_flow41c.3" vType="car1" speedFactor="0.90" vaporized=""/>
    <tripinfo id="flow21t.2" depart="14.00" departLane="end2_junction_1" departPos="7.20" departSpeed="0.00" departDelay="5.00" arrival="109.00" arrivalLane="junction_end1_1" arrivalPos="486.40" arrivalSpeed="13.07" duration="95.00" routeLength="974.63" waitingTime="0.00" waitingCount="0" stopTime="0.00" timeLoss="19.91" rerouteNo="0" devices="tripinfo_flow21t.2 routing_flow21t.2" vType="truck1" speedFactor="0.95" vaporized=""/>
    <tripinfo id="flow23t.1" depart="15.00" departLane="end2_junction_2" departPos="7.20" departSpeed="0.00" departDelay="5.00" arrival="111.00" arrivalLane="junction_end3_0" arrivalPos="486.40" arrivalSpeed="14.09" duration="96.00" routeLength="990.11" waitingTime="9.00" waitingCount="1" stopTime="0.00" timeLoss="24.89" rerouteNo="0" devices="tripinfo_flow23t.1 routing_flow23t.1" vType="truck1" speedFactor="1.02" vaporized=""/>
    <tripinfo id="flow24c.1" depart="22.00" departLane="end2_junction_0" departPos="5.10" departSpeed="0.00" departDelay="2.00" arrival="111.00" arrivalLane="junction_end4_0" arrivalPos="486.40" arrivalSpeed="13.08" duration="89.00" routeLength="994.90" waitingTime="0.00" waitingCount="0" stopTime="0.00" timeLoss="13.26" rerouteNo="0" devices="tripinfo_flow24c.1 routing_flow24c.1" vType="car1" speedFactor="0.96" vaporized=""/>
    <tripinfo id="flow21c.3" depart="29.00" departLane="end2_junction_2" departPos="5.10" departSpeed="0.00" departDelay="2.00" arrival="111.00" arrivalLane="junction_end1_0" arrivalPos="486.40" arrivalSpeed="13.03" duration="82.00" routeLength="976.73" waitingTime="0.00" waitingCount="0" stopTime="0.00" timeLoss="6.57" rerouteNo="0" devices="tripinfo_flow21c.3 routing_flow21c.3" vType="car1" speedFactor="0.95" vaporized=""/>
    <tripinfo id="flow23c.1" depart="25.00" departLane="end2_junction_1" departPos="5.10" departSpeed="0.00" departDelay="3.00" arrival="113.00" arrivalLane="junction_end3_0" arrivalPos="486.40" arrivalSpeed="14.08" duration="88.00" routeLength="992.21" waitingTime="5.00" waitingCount="1" stopTime="0.00" timeLoss="16.48" rerouteNo="0" devices="tripinfo_flow23c.1 routing_flow23c.1" vType="car1" speedFactor="1.02" vaporized=""/>
    <tripinfo id="flow41c.4" depart="20.00" departLane="end4_junction_0" departPos="5.10" departSpeed="0.00" departDelay="7.00" arrival="114.00" arrivalLane="junction_end1_1" arrivalPos="486.40" arrivalSpeed="15.00" duration="94.00" routeLength="992.21" waitingTime="0.00" waitingCount="0" stopTime="0.00" timeLoss="28.28" rerouteNo="0" devices="tripinfo_flow41c.4 routing_flow41c.4" vType="car1" speedFactor="1.10" vaporized=""/>
    <tripinfo id="flow23t.3" depart="25.00" departLane="end2_junction_2" departPos="7.20" departSpeed="0.00" departDelay="4.00" arrival="116.00" arrivalLane="junction_end3_0" arrivalPos="486.40" arrivalSpeed="13.91" duration="91.00" routeLength="990.11" waitingTime="5.00" waitingCount="1" stopTime="0.00" timeLoss="18.66" rerouteNo="0" devices="tripinfo_flow23t.3 routing_flow23t.3" vType="truck1" speedFactor="1.00" vaporized=""/>
    <tripinfo id="flow41c.1" depart="6.00" departLane="end4_junction_0" departPos="5.10" departSpeed="0.00" departDelay="0.00" arrival="117.00" arrivalLane="junction_end1_0" arrivalPos="486.40" arrivalSpeed="11.93" duration="111.00" routeLength="992.21" waitingTime="2.00" waitingCount="1" stopTime="0.00" timeLoss="27.84" rerouteNo="0" devices="tripinfo_flow41c.1 routing_flow41c.1" vType="car1" speedFactor="0.87" vaporized=""/>
    <tripinfo id="flow23t.4" depart="25.00" departLane="end2_junction_0" departPos="7.20" departSpeed="0.00" departDelay="1.00" arrival="119.00" arrivalLane="junction_end3_0" arrivalPos="486.40" arrivalSpeed="13.98" duration="94.00" routeLength="990.11" waitingTime="5.00" waitingCount="1" stopTime="0.00" timeLoss="22.08" rerouteNo="0" devices="tripinfo_flow23t.4 routing_flow23t.4" vType="truck1" speedFactor="1.01" vaporized=""/>
    <tripinfo id="flow41c.5" depart="23.00" departLane="end4_junction_0" departPos="5.10" departSpeed="0.00" departDelay="7.00" arrival="120.00" arrivalLane="junction_end1_1" arrivalPos="486.40" arrivalSpeed="14.00" duration="97.00" routeLength="992.21" waitingTime="0.00" waitingCount="0" stopTime="0.00" timeLoss="25.59" rerouteNo="0" devices="tripinfo_flow41c.5 routing_flow41c.5" vType="car1" speedFactor="1.02" vaporized=""/>
    <tripinfo id="flow23c.2" depart="31.00" departLane="end2_junction_1" departPos="5.10" departSpeed="0.00" departDelay="2.00" arrival="120.00" arrivalLane="junction_end3_1" arrivalPos="486.40" arrivalSpeed="14.36" duration="89.00" routeLength="992.21" waitingTime="5.00" waitingCount="1" stopTime="0.00" timeLoss="18.69" rerouteNo="0" devices="tripinfo_flow23c.2 routing_flow23c.2" vType="car1" speedFactor="1.03" vaporized=""/>
    <tripinfo id="flow23t.5" depart="31.00" departLane="end2_junction_0" departPos="7.20" departSpeed="0.00" departDelay="4.00" arrival="124.00" arrivalLane="junction_end3_0" arrivalPos="486.40" arrivalSpeed="13.10" duration="93.00" routeLength="990.11" waitingTime="2.00" waitingCount="1" stopTime="0.00" timeLoss="16.75" rerouteNo="0" devices="tripinfo_flow23t.5 routing_flow23t.5" vType="truck1" speedFactor="0.95" vaporized=""/>
    <tripinfo id="flow31t.0" depart="5.00" departLane="end3_junction_2" departPos="7.20" departSpeed="0.00" departDelay="0.00" arrival="129.00" arrivalLane="junction_end1_1" arrivalPos="486.40" arrivalSpeed="14.96" duration="124.00" routeLength="992.80" waitingTime="45.00" waitingCount="1" stopTime="0.00" timeLoss="57.76" rerouteNo="0" devices="tripinfo_flow31t.0 routing_flow31t.0" vType="truck1" speedFactor="1.08" vaporized=""/>
    <tripinfo id="flow14c.2" depart="31.00" departLane="end1_junction_0" departPos="5.10" departSpeed="0.00" departDelay="0.00" arrival="129.00" arrivalLane="junction_end4_0" arrivalPos="486.40" arrivalSpeed="15.13" duration="98.00" routeLength="976.73" waitingTime="0.00" waitingCount="0" stopTime="0.00" timeLoss="33.22" rerouteNo="0" devices="tripinfo_flow14c.2 routing_flow14c.2" vType="car1" speedFactor="1.10" vaporized=""/>
    <tripinfo id="flow13t.0" depart="5.00" departLane="end1_junction_1" departPos="7.20" departSpeed="0.00" departDelay="3.00" arrival="131.00" arrivalLane="junction_end3_0" arrivalPos="486.40" arrivalSpeed="13.98" duration="126.00" routeLength="992.80" waitingTime="42.00" waitingCount="1" stopTime="0.00" timeLoss="55.31" rerouteNo="0" devices="tripinfo_flow13t.0 routing_flow13t.0" vType="truck1" speedFactor="1.01" vaporized=""/>
    <tripinfo id="flow21t.4" depart="44.00" departLane="end2_junction_2" departPos="7.20" departSpeed="0.00" departDelay="9.00" arrival="131.00" arrivalLane="junction_end1_0" arrivalPos="486.40" arrivalSpeed="12.53" duration="87.00" routeLength="974.63" waitingTime="0.00" waitingCount="0" stopTime="0.00" timeLoss="9.38" rerouteNo="0" devices="tripinfo_flow21t.4 routing_flow21t.4" vType="truck1" speedFactor="0.91" vaporized=""/>
    <tripinfo id="flow31c.0" depart="18.00" departLane="end3_junction_2" departPos="5.10" departSpeed="0.00" departDelay="9.00" arrival="133.00" arrivalLane="junction_end1_1" arrivalPos="486.40" arrivalSpeed="14.24" duration="115.00" routeLength="994.90" waitingTime="35.00" waitingCount="1" stopTime="0.00" timeLoss="44.72" rerouteNo="0" devices="tripinfo_flow31c.0 routing_flow31c.0" vType="car1" speedFactor="1.03" vaporized=""/>
    <tripinfo id="flow14t.3" depart="15.00" departLane="end1_junction_0" departPos="7.20" departSpeed="0.00" departDelay="2.00" arrival="133.00" arrivalLane="junction_end4_0" arrivalPos="486.40" arrivalSpeed="12.77" duration="118.00" routeLength="974.63" waitingTime="8.00" waitingCount="1" stopTime="0.00" timeLoss="41.24" rerouteNo="0" devices="tripinfo_flow14t.3 routing_flow14t.3" vType="truck1" speedFactor="0.93" vaporized=""/>
    <tripinfo id="flow13t.1" depart="7.00" departLane="end1_junction_0" departPos="7.20" departSpeed="0.00" departDelay="2.00" arrival="135.00" arrivalLane="junction_end3_0" arrivalPos="486.40" arrivalSpeed="13.40" duration="128.00" routeLength="992.80" waitingTime="41.00" waitingCount="1" stopTime="0.00" timeLoss="53.38" rerouteNo="0" devices="tripinfo_flow13t.1 routing_flow13t.1" vType="truck1" speedFactor="0.97" vaporized=""/>
    <tripinfo id="flow13c.0" depart="12.00" departLane="end1_junction_1" departPos="5.10" departSpeed="0.00" departDelay="2.00" arrival="137.00" arrivalLane="junction_end3_0" arrivalPos="486.40" arrivalSpeed="13.05" duration="125.00" routeLength="994.90" waitingTime="38.00" waitingCount="1" stopTime="0.00" timeLoss="49.73" rerouteNo="0" devices="tripinfo_flow13c.0 routing_flow13c.0" vType="car1" speedFactor="0.96" vaporized=""/>
    <tripinfo id="flow31t.1" depart="15.00" departLane="end3_junction_1" departPos="7.20" departSpeed="0.00" departDelay="0.00" arrival="137.00" arrivalLane="junction_end1_0" arrivalPos="486.40" arrivalSpeed="13.13" duration="122.00" routeLength="992.80" waitingTime="34.00" waitingCount="1" stopTime="0.00" timeLoss="46.18" rerouteNo="0" devices="tripinfo_flow31t.1 routing_flow31t.1" vType="truck1" speedFactor="0.95" vaporized=""/>
    <tripinfo id="flow31c.1" depart="19.00" departLane="end3_junction_1" departPos="5.10" departSpeed="0.00" departDelay="0.00" arrival="137.00" arrivalLane="junction_end1_1" arrivalPos="486.40" arrivalSpeed="13.97" duration="118.00" routeLength="994.90" waitingTime="34.00" waitingCount="1" stopTime="0.00" timeLoss="47.44" rerouteNo="0" devices="tripinfo_flow31c.1 routing_flow31c.1" vType="car1" speedFactor="1.02" vaporized=""/>
    <tripinfo id="flow13t.2" depart="18.00" departLane="end1_junction_2" departPos="7.20" departSpeed="0.00" departDelay="0.00" arrival="139.00" arrivalLane="junction_end3_0" arrivalPos="486.40" arrivalSpeed="13.06" duration="121.00" routeLength="992.80" waitingTime="33.00" waitingCount="1" stopTime="0.00" timeLoss="44.76" rerouteNo="0" devices="tripinfo_flow13t.2 routing_flow13t.2" vType="truck1" speedFactor="0.94" vaporized=""/>
    <tripinfo id="flow13c.1" depart="18.00" departLane="end1_junction_1" departPos="5.10" departSpeed="0.00" departDelay="1.00" arrival="140.00" arrivalLane="junction_end3_1" arrivalPos="486.40" arrivalSpeed="13.68" duration="122.00" routeLength="994.90" waitingTime="33.00" waitingCount="1" stopTime="0.00" timeLoss="48.55" rerouteNo="0" devices="tripinfo_flow13c.1 routing_flow13c.1" vType="car1" speedFactor="0.99" vaporized=""/>
    <tripinfo id="flow14t.4" depart="33.00" departLane="end1_junction_2" departPos="7.20" departSpeed="0.00" departDelay="6.00" arrival="141.00" arrivalLane="junction_end4_0" arrivalPos="486.40" arrivalSpeed="13.54" duration="108.00" routeLength="974.63" waitingTime="0.00" waitingCount="0" stopTime="0.00" timeLoss="35.14" rerouteNo="0" devices="tripinfo_flow14t.4 routing_flow14t.4" vType="truck1" speedFactor="0.98" vaporized=""/>
    <tripinfo id="flow13c.2" depart="24.00" departLane="end1_junction_0" departPos="5.10" departSpeed="0.00" departDelay="1.00" arrival="142.00" arrivalLane="junction_end3_0" arrivalPos="486.40" arrivalSpeed="13.32" duration="118.00" routeLength="994.90" waitingTime="3.00" waitingCount="1" stopTime="0.00" timeLoss="43.69" rerouteNo="0" devices="tripinfo_flow13c.2 routing_flow13c.2" vType="car1" speedFactor="0.98" vaporized=""/>
    <tripinfo id="flow31t.2" depart="27.00" departLane="end3_junction_2" departPos="7.20" departSpeed="0.00" departDelay="2.00" arrival="142.00" arrivalLane="junction_end1_0" arrivalPos="486.40" arrivalSpeed="12.67" duration="115.00" routeLength="992.80" waitingTime="25.00" waitingCount="1" stopTime="0.00" timeLoss="36.37" rerouteNo="0" devices="tripinfo_flow31t.2 routing_flow31t.2" vType="truck1" speedFactor="0.92" vaporized=""/>
    <tripinfo id="flow21t.3" depart="18.00" departLane="end2_junction_0" departPos="7.20" departSpeed="0.00" departDelay="0.00" arrival="143.00" arrivalLane="junction_end1_1" arrivalPos="486.40" arrivalSpeed="13.21" duration="125.00" routeLength="974.63" waitingTime="0.00" waitingCount="0" stopTime="0.00" timeLoss="50.41" rerouteNo="0" devices="tripinfo_flow21t.3 routing_flow21t.3" vType="truck1" speedFactor="0.96" vaporized=""/>
    <tripinfo id="flow14c.1" depart="27.00" departLane="end1_junction_2" departPos="5.10" departSpeed="0.00" departDelay="0.00" arrival="143.00" arrivalLane="junction_end4_0" arrivalPos="486.40" arrivalSpeed="14.68" duration="116.00" routeLength="976.73" waitingTime="0.00" waitingCount="0" stopTime="0.00" timeLoss="49.07" rerouteNo="0" devices="tripinfo_flow14c.1 routing_flow14c.1" vType="car1" speedFactor="1.07" vaporized=""/>
    <tripinfo id="flow43c.1" depart="9.00" departLane="end4_junction_0" departPos="5.10" departSpeed="0.00" departDelay="3.00" arrival="144.00" arrivalLane="junction_end3_0" arrivalPos="486.40" arrivalSpeed="12.97" duration="135.00" routeLength="976.73" waitingTime="0.00" waitingCount="0" stopTime="0.00" timeLoss="59.52" rerouteNo="0" devices="tripinfo_flow43c.1 routing_flow43c.1" vType="car1" speedFactor="0.95" vaporized=""/>
    <tripinfo id="flow13t.3" depart="27.00" departLane="end1_junction_0" departPos="7.20" departSpeed="0.00" departDelay="2.00" arrival="154.00" arrivalLane="junction_end3_0" arrivalPos="486.40" arrivalSpeed="13.96" duration="127.00" routeLength="992.80" waitingTime="0.00" waitingCount="0" stopTime="0.00" timeLoss="55.16" rerouteNo="0" devices="tripinfo_flow13t.3 routing_flow13t.3" vType="truck1" speedFactor="1.01" vaporized=""/>
    <tripinfo id="flow32c.2" depart="33.00" departLane="end3_junction_2" departPos="5.10" departSpeed="0.00" departDelay="2.00" arrival="155.00" arrivalLane="junction_end2_0" arrivalPos="486.40" arrivalSpeed="12.64" duration="122.00" routeLength="976.73" waitingTime="0.00" waitingCount="0" stopTime="0.00" timeLoss="44.43" rerouteNo="0" devices="tripinfo_flow32c.2 routing_flow32c.2" vType="car1" speedFactor="0.92" vaporized=""/>
    <tripinfo id="flow34t.0" depart="5.00" departLane="end3_junction_1" departPos="7.20" departSpeed="0.00" departDelay="0.00" arrival="156.00" arrivalLane="junction_end4_0" arrivalPos="486.40" arrivalSpeed="13.92" duration="151.00" routeLength="990.11" waitingTime="63.00" waitingCount="2" stopTime="0.00" timeLoss="79.66" rerouteNo="0" devices="tripinfo_flow34t.0 routing_flow34t.0" vType="truck1" speedFactor="1.01" vaporized=""/>
    <tripinfo id="flow32c.3" depart="33.00" departLane="end3_junction_0" departPos="5.10" departSpeed="0.00" departDelay="0.00" arrival="157.00" arrivalLane="junction_end2_1" arrivalPos="486.40" arrivalSpeed="12.89" duration="124.00" routeLength="976.73" waitingTime="1.00" waitingCount="1" stopTime="0.00" timeLoss="47.89" rerouteNo="0" devices="tripinfo_flow32c.3 routing_flow32c.3" vType="car1" speedFactor="0.94" vaporized=""/>
    <tripinfo id="flow32c.4" depart="38.00" departLane="end3_junction_2" departPos="5.10" departSpeed="0.00" departDelay="0.00" arrival="158.00" arrivalLane="junction_end2_1" arrivalPos="486.40" arrivalSpeed="15.64" duration="120.00" routeLength="976.73" waitingTime="0.00" waitingCount="0" stopTime="0.00" timeLoss="58.78" rerouteNo="0" devices="tripinfo_flow32c.4 routing_flow32c.4" vType="car1" speedFactor="1.16" vaporized=""/>
    <tripinfo id="flow14t.5" depart="39.00" departLane="end1_junction_1" departPos="7.20" departSpeed="0.00" departDelay="2.00" arrival="159.00" arrivalLane="junction_end4_0" arrivalPos="486.40" arrivalSpeed="14.04" duration="120.00" routeLength="974.63" waitingTime="0.00" waitingCount="0" stopTime="0.00" timeLoss="50.07" rerouteNo="0" devices="tripinfo_flow14t.5 routing_flow14t.5" vType="truck1" speedFactor="1.02" vaporized=""/>