<?xml version="1.0" encoding="UTF-8"?>

<!-- generated on 2022-01-17 19:52:08 by Eclipse SUMO sumo Version 1.11.0
<configuration xmlns:xsi="http://www.w3.org/2001/XMLSchema-instance" xsi:noNamespaceSchemaLocation="http://sumo.dlr.de/xsd/sumoConfiguration.xsd">

    <input>
        <net-file value="draft.net.xml"/>
        <route-files value="draft.rou.xml"/>
    </input>

    <output>
        <summary-output value="sum.xml"/>
        <tripinfo-output value="tripinfo.xml"/>
    </output>

    <time>
        <end value="900"/>
    </time>

    <processing>
        <time-to-teleport value="-1"/>
    </processing>

    <report>
        <no-warnings value="true"/>
    </report>

    <traci_server>
        <remote-port value="63344"/>
    </traci_server>

    <gui_only>
        <gui-settings-file value="flick.cfg"/>
        <quit-on-end value="true"/>
        <start value="true"/>
    </gui_only>

</configuration>
-->

<tripinfos xmlns:xsi="http://www.w3.org/2001/XMLSchema-instance" xsi:noNamespaceSchemaLocation="http://sumo.dlr.de/xsd/tripinfo_file.xsd">
    <tripinfo id="flow21c.0" depart="4.00" departLane="end2_junction_1" departPos="5.10" departSpeed="0.00" departDelay="0.00" arrival="80.00" arrivalLane="junction_end1_0" arrivalPos="486.40" arrivalSpeed="13.66" duration="76.00" routeLength="976.73" waitingTime="0.00" waitingCount="0" stopTime="0.00" timeLoss="7.94" rerouteNo="0" devices="tripinfo_flow21c.0 routing_flow21c.0" vType="car1" speedFactor="1.05" vaporized=""/>
    <tripinfo id="flow42c.0" depart="6.00" departLane="end4_junction_2" departPos="5.10" departSpeed="0.00" departDelay="0.00" arrival="84.00" arrivalLane="junction_end2_0" arrivalPos="486.40" arrivalSpeed="13.17" duration="78.00" routeLength="994.90" waitingTime="0.00" waitingCount="0" stopTime="0.00" timeLoss="7.84" rerouteNo="0" devices="tripinfo_flow42c.0 routing_flow42c.0" vType="car1" speedFactor="1.03" vaporized=""/>
    <tripinfo id="flow32t.0" depart="7.00" departLane="end3_junction_2" departPos="7.20" departSpeed="0.00" departDelay="0.00" arrival="86.00" arrivalLane="junction_end2_0" arrivalPos="486.40" arrivalSpeed="14.58" duration="79.00" routeLength="974.63" waitingTime="0.00" waitingCount="0" stopTime="0.00" timeLoss="11.85" rerouteNo="0" devices="tripinfo_flow32t.0 routing_flow32t.0" vType="truck1" speedFactor="1.06" vaporized=""/>
    <tripinfo id="flow43c.1" depart="8.00" departLane="end4_junction_1" departPos="5.10" departSpeed="0.00" departDelay="2.00" arrival="89.00" arrivalLane="junction_end3_1" arrivalPos="486.40" arrivalSpeed="13.47" duration="81.00" routeLength="976.73" waitingTime="0.00" waitingCount="0" stopTime="0.00" timeLoss="12.53" rerouteNo="0" devices="tripinfo_flow43c.1 routing_flow43c.1" vType="car1" speedFactor="1.05" vaporized=""/>
    <tripinfo id="flow43c.0" depart="6.00" departLane="end4_junction_0" departPos="5.10" departSpeed="0.00" departDelay="1.00" arrival="91.00" arrivalLane="junction_end3_0" arrivalPos="486.40" arrivalSpeed="12.74" duration="85.00" routeLength="976.73" waitingTime="0.00" waitingCount="0" stopTime="0.00" timeLoss="8.97" rerouteNo="0" devices="tripinfo_flow43c.0 routing_flow43c.0" vType="car1" speedFactor="0.94" vaporized=""/>
    <tripinfo id="flow21t.0" depart="6.00" departLane="end2_junction_2" departPos="7.20" departSpeed="0.00" departDelay="2.00" arrival="93.00" arrivalLane="junction_end1_0" arrivalPos="486.40" arrivalSpeed="12.46" duration="87.00" routeLength="974.63" waitingTime="0.00" waitingCount="0" stopTime="0.00" timeLoss="10.91" rerouteNo="0" devices="tripinfo_flow21t.0 routing_flow21t.0" vType="truck1" speedFactor="0.94" vaporized=""/>
    <tripinfo id="flow14t.0" depart="6.00" departLane="end1_junction_0" departPos="7.20" departSpeed="0.00" departDelay="0.00" arrival="93.00" arrivalLane="junction_end4_0" arrivalPos="486.40" arrivalSpeed="12.88" duration="87.00" routeLength="974.63" waitingTime="0.00" waitingCount="0" stopTime="0.00" timeLoss="10.12" rerouteNo="0" devices="tripinfo_flow14t.0 routing_flow14t.0" vType="truck1" speedFactor="0.93" vaporized=""/>
    <tripinfo id="flow14t.1" depart="13.00" departLane="end1_junction_1" departPos="7.20" departSpeed="0.00" departDelay="0.00" arrival="95.00" arrivalLane="junction_end4_0" arrivalPos="486.40" arrivalSpeed="13.73" duration="82.00" routeLength="974.63" waitingTime="0.00" waitingCount="0" stopTime="0.00" timeLoss="11.11" rerouteNo="0" devices="tripinfo_flow14t.1 routing_flow14t.1" vType="truck1" speedFactor="1.01" vaporized=""/>
    <tripinfo id="flow21c.1" depart="11.00" departLane="end2_junction_1" departPos="5.10" departSpeed="0.00" departDelay="1.00" arrival="96.00" arrivalLane="junction_end1_0" arrivalPos="486.40" arrivalSpeed="12.89" duration="85.00" routeLength="976.73" waitingTime="0.00" waitingCount="0" stopTime="0.00" timeLoss="9.20" rerouteNo="0" devices="tripinfo_flow21c.1 routing_flow21c.1" vType="car1" speedFactor="0.94" vaporized=""/>
    <tripinfo id="flow34c.0" depart="2.00" departLane="end3_junction_2" departPos="5.10" departSpeed="0.00" departDelay="0.00" arrival="108.00" arrivalLane="junction_end4_0" arrivalPos="486.40" arrivalSpeed="13.81" duration="106.00" routeLength="992.21" waitingTime="24.00" waitingCount="1" stopTime="0.00" timeLoss="35.61" rerouteNo="0" devices="tripinfo_flow34c.0 routing_flow34c.0" vType="car1" speedFactor="1.03" vaporized=""/>
    <tripinfo id="flow14t.2" depart="27.00" departLane="end1_junction_2" departPos="7.20" departSpeed="0.00" departDelay="0.00" arrival="113.00" arrivalLane="junction_end4_0" arrivalPos="486.40" arrivalSpeed="13.01" duration="86.00" routeLength="974.63" waitingTime="0.00" waitingCount="0" stopTime="0.00" timeLoss="10.96" rerouteNo="0" devices="tripinfo_flow14t.2 routing_flow14t.2" vType="truck1" speedFactor="0.95" vaporized=""/>
    <tripinfo id="flow43t.0" depart="29.00" departLane="end4_junction_2" departPos="7.20" departSpeed="0.00" departDelay="1.00" arrival="113.00" arrivalLane="junction_end3_0" arrivalPos="486.40" arrivalSpeed="13.19" duration="84.00" routeLength="974.63" waitingTime="0.00" waitingCount="0" stopTime="0.00" timeLoss="10.83" rerouteNo="0" devices="tripinfo_flow43t.0 routing_flow43t.0" vType="truck1" speedFactor="0.98" vaporized=""/>
    <tripinfo id="flow34t.0" depart="10.00" departLane="end3_junction_0" departPos="7.20" departSpeed="0.00" departDelay="2.00" arrival="116.00" arrivalLane="junction_end4_0" arrivalPos="486.40" arrivalSpeed="12.87" duration="106.00" routeLength="990.11" waitingTime="13.00" waitingCount="2" stopTime="0.00" timeLoss="28.83" rerouteNo="0" devices="tripinfo_flow34t.0 routing_flow34t.0" vType="truck1" speedFactor="0.94" vaporized=""/>
    <tripinfo id="flow34c.1" depart="17.00" departLane="end3_junction_1" departPos="5.10" departSpeed="0.00" departDelay="1.00" arrival="118.00" arrivalLane="junction_end4_1" arrivalPos="486.40" arrivalSpeed="12.23" duration="101.00" routeLength="992.21" waitingTime="9.00" waitingCount="1" stopTime="0.00" timeLoss="24.71" rerouteNo="0" devices="tripinfo_flow34c.1 routing_flow34c.1" vType="car1" speedFactor="0.95" vaporized=""/>
    <tripinfo id="flow34c.2" depart="30.00" departLane="end3_junction_2" departPos="5.10" departSpeed="0.00" departDelay="0.00" arrival="118.00" arrivalLane="junction_end4_2" arrivalPos="486.40" arrivalSpeed="13.46" duration="88.00" routeLength="992.21" waitingTime="0.00" waitingCount="0" stopTime="0.00" timeLoss="18.48" rerouteNo="0" devices="tripinfo_flow34c.2 routing_flow34c.2" vType="car1" speedFactor="1.04" vaporized=""/>
    <tripinfo id="flow12t.0" depart="34.00" departLane="end1_junction_1" departPos="7.20" departSpeed="0.00" departDelay="0.00" arrival="119.00" arrivalLane="junction_end2_0" arrivalPos="486.40" arrivalSpeed="12.80" duration="85.00" routeLength="990.11" waitingTime="0.00" waitingCount="0" stopTime="0.00" timeLoss="9.44" rerouteNo="0" devices="tripinfo_flow12t.0 routing_flow12t.0" vType="truck1" speedFactor="0.95" vaporized=""/>
    <tripinfo id="flow23c.0" depart="0.00" departLane="end2_junction_2" departPos="5.10" departSpeed="0.00" departDelay="0.00" arrival="126.00" arrivalLane="junction_end3_0" arrivalPos="486.40" arrivalSpeed="14.69" duration="126.00" routeLength="992.21" waitingTime="46.00" waitingCount="1" stopTime="0.00" timeLoss="57.47" rerouteNo="0" devices="tripinfo_flow23c.0 routing_flow23c.0" vType="car1" speedFactor="1.06" vaporized=""/>
    <tripinfo id="flow41c.0" depart="1.00" departLane="end4_junction_0" departPos="5.10" departSpeed="0.00" departDelay="0.00" arrival="126.00" arrivalLane="junction_end1_1" arrivalPos="486.40" arrivalSpeed="14.66" duration="125.00" routeLength="992.21" waitingTime="46.00" waitingCount="1" stopTime="0.00" timeLoss="57.65" rerouteNo="0" devices="tripinfo_flow41c.0 routing_flow41c.0" vType="car1" speedFactor="1.08" vaporized=""/>
    <tripinfo id="flow23c.1" depart="24.00" departLane="end2_junction_0" departPos="5.10" departSpeed="0.00" departDelay="2.00" arrival="131.00" arrivalLane="junction_end3_2" arrivalPos="486.40" arrivalSpeed="15.68" duration="107.00" routeLength="992.21" waitingTime="28.00" waitingCount="1" stopTime="0.00" timeLoss="43.73" rerouteNo="0" devices="tripinfo_flow23c.1 routing_flow23c.1" vType="car1" speedFactor="1.15" vaporized=""/>
    <tripinfo id="flow23t.0" depart="14.00" departLane="end2_junction_1" departPos="7.20" departSpeed="0.00" departDelay="1.00" arrival="132.00" arrivalLane="junction_end3_0" arrivalPos="486.40" arrivalSpeed="13.36" duration="118.00" routeLength="990.11" waitingTime="29.00" waitingCount="1" stopTime="0.00" timeLoss="45.72" rerouteNo="0" devices="tripinfo_flow23t.0 routing_flow23t.0" vType="truck1" speedFactor="1.01" vaporized=""/>
    <tripinfo id="flow41t.0" depart="0.00" departLane="end4_junction_1" departPos="7.20" departSpeed="0.00" departDelay="0.00" arrival="133.00" arrivalLane="junction_end1_0" arrivalPos="486.40" arrivalSpeed="12.99" duration="133.00" routeLength="990.11" waitingTime="43.00" waitingCount="1" stopTime="0.00" timeLoss="58.30" rerouteNo="0" devices="tripinfo_flow41t.0 routing_flow41t.0" vType="truck1" speedFactor="0.97" vaporized=""/>
    <tripinfo id="flow41c.2" depart="17.00" departLane="end4_junction_2" departPos="5.10" departSpeed="0.00" departDelay="1.00" arrival="133.00" arrivalLane="junction_end1_1" arrivalPos="486.40" arrivalSpeed="14.75" duration="116.00" routeLength="992.21" waitingTime="29.00" waitingCount="1" stopTime="0.00" timeLoss="52.12" rerouteNo="0" devices="tripinfo_flow41c.2 routing_flow41c.2" vType="car1" speedFactor="1.13" vaporized=""/>
    <tripinfo id="flow41t.1" depart="25.00" departLane="end4_junction_2" departPos="7.20" departSpeed="0.00" departDelay="0.00" arrival="136.00" arrivalLane="junction_end1_1" arrivalPos="486.40" arrivalSpeed="14.53" duration="111.00" routeLength="990.11" waitingTime="26.00" waitingCount="1" stopTime="0.00" timeLoss="44.54" rerouteNo="0" devices="tripinfo_flow41t.1 routing_flow41t.1" vType="truck1" speedFactor="1.09" vaporized=""/>
    <tripinfo id="flow23t.1" depart="34.00" departLane="end2_junction_0" departPos="7.20" departSpeed="0.00" departDelay="0.00" arrival="138.00" arrivalLane="junction_end3_0" arrivalPos="486.40" arrivalSpeed="12.87" duration="104.00" routeLength="990.11" waitingTime="10.00" waitingCount="1" stopTime="0.00" timeLoss="26.82" rerouteNo="0" devices="tripinfo_flow23t.1 routing_flow23t.1" vType="truck1" speedFactor="0.94" vaporized=""/>
    <tripinfo id="flow41c.1" depart="13.00" departLane="end4_junction_2" departPos="5.10" departSpeed="0.00" departDelay="0.00" arrival="140.00" arrivalLane="junction_end1_0" arrivalPos="486.40" arrivalSpeed="11.51" duration="127.00" routeLength="992.21" waitingTime="30.00" waitingCount="1" stopTime="0.00" timeLoss="45.34" rerouteNo="0" devices="tripinfo_flow41c.1 routing_flow41c.1" vType="car1" speedFactor="0.89" vaporized=""/>
    <tripinfo id="flow23c.3" depart="59.00" departLane="end2_junction_2" departPos="5.10" departSpeed="0.00" departDelay="0.00" arrival="140.00" arrivalLane="junction_end3_1" arrivalPos="486.40" arrivalSpeed="12.65" duration="81.00" routeLength="992.21" waitingTime="0.00" waitingCount="0" stopTime="0.00" timeLoss="6.61" rerouteNo="0" devices="tripinfo_flow23c.3 routing_flow23c.3" vType="car1" speedFactor="0.97" vaporized=""/>
    <tripinfo id="flow14t.4" depart="42.00" departLane="end1_junction_1" departPos="7.20" departSpeed="0.00" departDelay="1.00" arrival="146.00" arrivalLane="junction_end4_0" arrivalPos="486.40" arrivalSpeed="13.41" duration="104.00" routeLength="974.63" waitingTime="0.00" waitingCount="0" stopTime="0.00" timeLoss="33.37" rerouteNo="0" devices="tripinfo_flow14t.4 routing_flow14t.4" vType="truck1" speedFactor="1.01" vaporized=""/>
    <tripinfo id="flow13c.1" depart="24.00" departLane="end1_junction_2" departPos="5.10" departSpeed="0.00" departDelay="1.00" arrival="147.00" arrivalLane="junction_end3_2" arrivalPos="486.40" arrivalSpeed="15.20" duration="123.00" routeLength="994.90" waitingTime="47.00" waitingCount="1" stopTime="0.00" timeLoss="60.99" rerouteNo="0" devices="tripinfo_flow13c.1 routing_flow13c.1" vType="car1" speedFactor="1.17" vaporized=""/>
    <tripinfo id="flow13c.0" depart="10.00" departLane="end1_junction_1" departPos="5.10" departSpeed="0.00" departDelay="0.00" arrival="151.00" arrivalLane="junction_end3_0" arrivalPos="486.40" arrivalSpeed="12.20" duration="141.00" routeLength="994.90" waitingTime="52.00" waitingCount="1" stopTime="0.00" timeLoss="64.86" rerouteNo="0" devices="tripinfo_flow13c.0 routing_flow13c.0" vType="car1" speedFactor="0.94" vaporized=""/>
    <tripinfo id="flow31t.0" depart="25.00" departLane="end3_junction_2" departPos="7.20" departSpeed="0.00" departDelay="0.00" arrival="152.00" arrivalLane="junction_end1_0" arrivalPos="486.40" arrivalSpeed="13.56" duration="127.00" routeLength="992.80" waitingTime="38.00" waitingCount="1" stopTime="0.00" timeLoss="53.92" rerouteNo="0" devices="tripinfo_flow31t.0 routing_flow31t.0" vType="truck1" speedFactor="0.99" vaporized=""/>
    <tripinfo id="flow14c.0" depart="47.00" departLane="end1_junction_1" departPos="5.10" departSpeed="0.00" departDelay="0.00" arrival="155.00" arrivalLane="junction_end4_0" arrivalPos="486.40" arrivalSpeed="11.78" duration="108.00" routeLength="976.73" waitingTime="0.00" waitingCount="0" stopTime="0.00" timeLoss="31.66" rerouteNo="0" devices="tripinfo_flow14c.0 routing_flow14c.0" vType="car1" speedFactor="0.94" vaporized=""/>
    <tripinfo id="flow13c.3" depart="39.00" departLane="end1_junction_1" departPos="5.10" departSpeed="0.00" departDelay="0.00" arrival="157.00" arrivalLane="junction_end3_2" arrivalPos="486.40" arrivalSpeed="13.83" duration="118.00" routeLength="994.90" waitingTime="11.00" waitingCount="1" stopTime="0.00" timeLoss="45.87" rerouteNo="0" devices="tripinfo_flow13c.3 routing_flow13c.3" vType="car1" speedFactor="1.00" vaporized=""/>
    <tripinfo id="flow13t.0" depart="54.00" departLane="end1_junction_2" departPos="7.20" departSpeed="0.00" departDelay="0.00" arrival="158.00" arrivalLane="junction_end3_1" arrivalPos="486.40" arrivalSpeed="13.53" duration="104.00" routeLength="992.80" waitingTime="9.00" waitingCount="1" stopTime="0.00" timeLoss="33.35" rerouteNo="0" devices="tripinfo_flow13t.0 routing_flow13t.0" vType="truck1" speedFactor="1.02" vaporized=""/>
    <tripinfo id="flow31c.1" depart="58.00" departLane="end3_junction_2" departPos="5.10" departSpeed="0.00" departDelay="1.00" arrival="159.00" arrivalLane="junction_end1_1" arrivalPos="486.40" arrivalSpeed="14.52" duration="101.00" routeLength="994.90" waitingTime="6.00" waitingCount="1" stopTime="0.00" timeLoss="34.39" rerouteNo="0" devices="tripinfo_flow31c.1 routing_flow31c.1" vType="car1" speedFactor="1.09" vaporized=""/>
    <tripinfo id="flow13c.2" depart="35.00" departLane="end1_junction_2" departPos="5.10" departSpeed="0.00" departDelay="0.00" arrival="160.00" arrivalLane="junction_end3_0" arrivalPos="486.40" arrivalSpeed="11.21" duration="125.00" routeLength="994.90" waitingTime="27.00" waitingCount="1" stopTime="0.00" timeLoss="40.16" rerouteNo="0" devices="tripinfo_flow13c.2 routing_flow13c.2" vType="car1" speedFactor="0.85" vaporized=""/>
    <tripinfo id="flow21c.3" depart="65.00" departLane="end2_junction_2" departPos="5.10" departSpeed="0.00" departDelay="0.00" arrival="160.00" arrivalLane="junction_end1_0" arrivalPos="486.40" arrivalSpeed="11.01" duration="95.00" routeLength="976.73" waitingTime="0.00" waitingCount="0" stopTime="0.00" timeLoss="9.43" rerouteNo="0" devices="tripinfo_flow21c.3 routing_flow21c.3" vType="car1" speedFactor="0.83" vaporized=""/>
    <tripinfo id="flow14t.3" depart="38.00" departLane="end1_junction_0" departPos="7.20" departSpeed="0.00" departDelay="0.00" arrival="161.00" arrivalLane="junction_end4_0" arrivalPos="486.40" arrivalSpeed="14.35" duration="123.00" routeLength="974.63" waitingTime="0.00" waitingCount="0" stopTime="0.00" timeLoss="54.34" rerouteNo="0" devices="tripinfo_flow14t.3 routing_flow14t.3" vType="truck1" speedFactor="1.05" vaporized=""/>
    <tripinfo id="flow31c.0" depart="48.00" departLane="end3_junction_0" departPos="5.10" departSpeed="0.00" departDelay="0.00" arrival="163.00" arrivalLane="junction_end1_0" arrivalPos="486.40" arrivalSpeed="11.53" duration="115.00" routeLength="994.90" waitingTime="6.00" waitingCount="1" stopTime="0.00" timeLoss="35.72" rerouteNo="0" devices="tripinfo_flow31c.0 routing_flow31c.0" vType="car1" speedFactor="0.91" vaporized=""/>
    <tripinfo id="flow31t.1" depart="67.00" departLane="end3_junction_2" departPos="7.20" departSpeed="0.00" departDelay="0.00" arrival="163.00" arrivalLane="junction_end1_1" arrivalPos="486.40" arrivalSpeed="14.03" duration="96.00" routeLength="992.80" waitingTime="0.00" waitingCount="0" stopTime="0.00" timeLoss="27.01" rerouteNo="0" devices="tripinfo_flow31t.1 routing_flow31t.1" vType="truck1" speedFactor="1.05" vaporized=""/>
    <tripinfo id="flow14t.5" depart="56.00" departLane="end1_junction_0" departPos="7.20" departSpeed="0.00" departDelay="0.00" arrival="164.00" arrivalLane="junction_end4_0" arrivalPos="486.40" arrivalSpeed="13.83" duration="108.00" routeLength="974.63" waitingTime="0.00" waitingCount="0" stopTime="0.00" timeLoss="37.10" rerouteNo="0" devices="tripinfo_flow14t.5 routing_flow14t.5" vType="truck1" speedFactor="1.00" vaporized=""/>
    <tripinfo id="flow14t.6" depart="60.00" departLane="end1_junction_2" departPos="7.20" departSpeed="0.00" departDelay="2.00" arrival="166.00" arrivalLane="junction_end4_1" arrivalPos="486.40" arrivalSpeed="13.49" duration="106.00" routeLength="974.63" waitingTime="0.00" waitingCount="0" stopTime="0.00" timeLoss="35.61" rerouteNo="0" devices="tripinfo_flow14t.6 routing_flow14t.6" vType="truck1" speedFactor="1.01" vaporized=""/>
    <tripinfo id="flow21t.1" depart="36.00" departLane="end2_junction_2" departPos="7.20" departSpeed="0.00" departDelay="1.00" arrival="169.00" arrivalLane="junction_end1_0" arrivalPos="486.40" arrivalSpeed="12.47" duration="133.00" routeLength="974.63" waitingTime="0.00" waitingCount="0" stopTime="0.00" timeLoss="55.96" rerouteNo="0" devices="tripinfo_flow21t.1 routing_flow21t.1" vType="truck1" speedFactor="0.93" vaporized=""/>
    <tripinfo id="flow14c.1" depart="76.00" departLane="end1_junction_0" departPos="5.10" departSpeed="0.00" departDelay="2.00" arrival="173.00" arrivalLane="junction_end4_0" arrivalPos="486.40" arrivalSpeed="12.52" duration="97.00" routeLength="976.73" waitingTime="0.00" waitingCount="0" stopTime="0.00" timeLoss="23.02" rerouteNo="0" devices="tripinfo_flow14c.1 routing_flow14c.1" vType="car1" speedFactor="0.97" vaporized=""/>
    <tripinfo id="flow21c.2" depart="52.00" departLane="end2_junction_0" departPos="5.10" departSpeed="0.00" departDelay="1.00" arrival="178.00" arrivalLane="junction_end1_0" arrivalPos="486.40" arrivalSpeed="13.46" duration="126.00" routeLength="976.73" waitingTime="0.00" waitingCount="0" stopTime="0.00" timeLoss="52.34" rerouteNo="0" devices="tripinfo_flow21c.2 routing_flow21c.2" vType="car1" speedFactor="0.97" vaporized=""/>
    <tripinfo id="flow21t.2" depart="80.00" departLane="end2_junction_2" departPos="7.20" departSpeed="0.00" departDelay="0.00" arrival="181.00" arrivalLane="junction_end1_1" arrivalPos="486.40" arrivalSpeed="13.16" duration="101.00" routeLength="974.63" waitingTime="0.00" waitingCount="0" stopTime="0.00" timeLoss="26.73" rerouteNo="0" devices="tripinfo_flow21t.2 routing_flow21t.2" vType="truck1" speedFactor="0.96" vaporized=""/>
    <tripinfo id="flow24t.0" depart="12.00" departLane="end2_junction_0" departPos="7.20" departSpeed="0.00" departDelay="0.00" arrival="184.00" arrivalLane="junction_end4_0" arrivalPos="486.40" arrivalSpeed="14.96" duration="172.00" routeLength="992.80" waitingTime="88.00" waitingCount="1" stopTime="0.00" timeLoss="105.61" rerouteNo="0" devices="tripinfo_flow24t.0 routing_flow24t.0" vType="truck1" speedFactor="1.08" vaporized=""/>
    <tripinfo id="flow42c.1" depart="9.00" departLane="end4_junction_0" departPos="5.10" departSpeed="0.00" departDelay="2.00" arrival="185.00" arrivalLane="junction_end2_0" arrivalPos="486.40" arrivalSpeed="13.38" duration="176.00" routeLength="994.90" waitingTime="89.00" waitingCount="1" stopTime="0.00" timeLoss="102.96" rerouteNo="0" devices="tripinfo_flow42c.1 routing_flow42c.1" vType="car1" speedFactor="0.99" vaporized=""/>
    <tripinfo id="flow43b.0" depart="0.00" departLane="end4_junction_2" departPos="1.70" departSpeed="0.00" departDelay="0.00" arrival="188.00" arrivalLane="junction_end3_0" arrivalPos="486.40" arrivalSpeed="5.55" duration="188.00" routeLength="980.13" waitingTime="0.00" waitingCount="0" stopTime="0.00" timeLoss="11.47" rerouteNo="0" devices="tripinfo_flow43b.0 routing_flow43b.0" vType="bike1" speedFactor="1.01" vaporized=""/>
    <tripinfo id="flow42c.4" depart="30.00" departLane="end4_junction_0" departPos="5.10" departSpeed="0.00" departDelay="1.00" arrival="189.00" arrivalLane="junction_end2_2" arrivalPos="486.40" arrivalSpeed="13.33" duration="159.00" routeLength="994.90" waitingTime="75.00" waitingCount="1" stopTime="0.00" timeLoss="89.44" rerouteNo="0" devices="tripinfo_flow42c.4 routing_flow42c.4" vType="car1" speedFactor="1.04" vaporized=""/>
    <tripinfo id="flow21t.3" depart="108.00" departLane="end2_junction_0" departPos="7.20" departSpeed="0.00" departDelay="0.00" arrival="189.00" arrivalLane="junction_end1_1" arrivalPos="486.40" arrivalSpeed="14.16" duration="81.00" routeLength="974.63" waitingTime="0.00" waitingCount="0" stopTime="0.00" timeLoss="11.85" rerouteNo="0" devices="tripinfo_flow21t.3 routing_flow21t.3" vType="truck1" speedFactor="1.03" vaporized=""/>
    <tripinfo id="flow42c.2" depart="15.00" departLane="end4_junction_1" departPos="5.10" departSpeed="0.00" departDelay="0.00" arrival="191.00" arrivalLane="junction_end2_0" arrivalPos="486.40" arrivalSpeed="11.35" duration="176.00" routeLength="994.90" waitingTime="83.00" waitingCount="1" stopTime="0.00" timeLoss="93.77" rerouteNo="0" devices="tripinfo_flow42c.2 routing_flow42c.2" vType="car1" speedFactor="0.87" vaporized=""/>
    <tripinfo id="flow42c.3" depart="22.00" departLane="end4_junction_1" departPos="5.10" departSpeed="0.00" departDelay="0.00" arrival="191.00" arrivalLane="junction_end2_1" arrivalPos="486.40" arrivalSpeed="12.69" duration="169.00" routeLength="994.90" waitingTime="82.00" waitingCount="1" stopTime="0.00" timeLoss="97.06" rerouteNo="0" devices="tripinfo_flow42c.3 routing_flow42c.3" vType="car1" speedFactor="1.01" vaporized=""/>
    <tripinfo id="flow24c.0" depart="51.00" departLane="end2_junction_2" departPos="5.10" departSpeed="0.00" departDelay="0.00" arrival="191.00" arrivalLane="junction_end4_0" arrivalPos="486.40" arrivalSpeed="12.62" duration="140.00" routeLength="994.90" waitingTime="50.00" waitingCount="1" stopTime="0.00" timeLoss="63.52" rerouteNo="0" devices="tripinfo_flow24c.0 routing_flow24c.0" vType="car1" speedFactor="0.94" vaporized=""/>
    <tripinfo id="flow43b.1" depart="3.00" departLane="end4_junction_1" departPos="1.70" departSpeed="0.00" departDelay="0.00" arrival="193.00" arrivalLane="junction_end3_0" arrivalPos="486.40" arrivalSpeed="5.40" duration="190.00" routeLength="980.13" waitingTime="0.00" waitingCount="0" stopTime="0.00" timeLoss="13.32" rerouteNo="0" devices="tripinfo_flow43b.1 routing_flow43b.1" vType="bike1" speedFactor="0.83" vaporized=""/>
    <tripinfo id="flow42c.5" depart="36.00" departLane="end4_junction_0" departPos="5.10" departSpeed="0.00" departDelay="0.00" arrival="193.00" arrivalLane="junction_end2_1" arrivalPos="486.40" arrivalSpeed="13.88" duration="157.00" routeLength="994.90" waitingTime="68.00" waitingCount="1" stopTime="0.00" timeLoss="85.60" rerouteNo="0" devices="tripinfo_flow42c.5 routing_flow42c.5" vType="car1" speedFactor="1.02" vaporized=""/>
    <tripinfo id="flow42c.7" depart="67.00" departLane="end4_junction_1" departPos="5.10" departSpeed="0.00" departDelay="0.00" arrival="193.00" arrivalLane="junction_end2_2" arrivalPos="486.40" arrivalSpeed="14.63" duration="126.00" routeLength="994.90" waitingTime="43.00" waitingCount="1" stopTime="0.00" timeLoss="57.89" rerouteNo="0" devices="tripinfo_flow42c.7 routing_flow42c.7" vType="car1" speedFactor="1.06" vaporized=""/>
    <tripinfo id="flow42c.6" depart="63.00" departLane="end4_junction_2" departPos="5.10" departSpeed="0.00" departDelay="3.00" arrival="194.00" arrivalLane="junction_end2_1" arrivalPos="486.40" arrivalSpeed="13.94" duration="131.00" routeLength="994.90" waitingTime="44.00" waitingCount="1" stopTime="0.00" timeLoss="62.00" rerouteNo="0" devices="tripinfo_flow42c.6 routing_flow42c.6" vType="car1" speedFactor="1.04" vaporized=""/>
    <tripinfo id="flow21b.0" depart="8.00" departLane="end2_junction_2" departPos="1.70" departSpeed="0.00" departDelay="0.00" arrival="197.00" arrivalLane="junction_end1_0" arrivalPos="486.40" arrivalSpeed="5.08" duration="189.00" routeLength="980.13" waitingTime="0.00" waitingCount="0" stopTime="0.00" timeLoss="12.44" rerouteNo="0" devices="tripinfo_flow21b.0 routing_flow21b.0" vType="bike1" speedFactor="0.93" vaporized=""/>
    <tripinfo id="flow32t.1" depart="75.00" departLane="end3_junction_0" departPos="7.20" departSpeed="0.00" departDelay="0.00" arrival="198.00" arrivalLane="junction_end2_0" arrivalPos="486.40" arrivalSpeed="12.79" duration="123.00" routeLength="974.63" waitingTime="0.00" waitingCount="0" stopTime="0.00" timeLoss="48.31" rerouteNo="0" devices="tripinfo_flow32t.1 routing_flow32t.1" vType="truck1" speedFactor="0.95" vaporized=""/>
    <tripinfo id="flow24t.1" depart="80.00" departLane="end2_junction_1" departPos="7.20" departSpeed="0.00" departDelay="0.00" arrival="203.00" arrivalLane="junction_end4_1" arrivalPos="486.40" arrivalSpeed="12.93" duration="123.00" routeLength="992.80" waitingTime="12.00" waitingCount="1" stopTime="0.00" timeLoss="46.07" rerouteNo="0" devices="tripinfo_flow24t.1 routing_flow24t.1" vType="truck1" speedFactor="0.93" vaporized=""/>
    <tripinfo id="flow21c.5" depart="130.00" departLane="end2_junction_2" departPos="5.10" departSpeed="0.00" departDelay="0.00" arrival="204.00" arrivalLane="junction_end1_1" arrivalPos="486.40" arrivalSpeed="14.12" duration="74.00" routeLength="976.73" waitingTime="0.00" waitingCount="0" stopTime="0.00" timeLoss="8.14" rerouteNo="0" devices="tripinfo_flow21c.5 routing_flow21c.5" vType="car1" speedFactor="1.09" vaporized=""/>
    <tripinfo id="flow43c.3" depart="108.00" departLane="end4_junction_2" departPos="5.10" departSpeed="0.00" departDelay="0.00" arrival="207.00" arrivalLane="junction_end3_1" arrivalPos="486.40" arrivalSpeed="16.11" duration="99.00" routeLength="976.73" waitingTime="1.00" waitingCount="1" stopTime="0.00" timeLoss="37.95" rerouteNo="0" devices="tripinfo_flow43c.3 routing_flow43c.3" vType="car1" speedFactor="1.18" vaporized=""/>
    <tripinfo id="flow32c.0" depart="95.00" departLane="end3_junction_0" departPos="5.10" departSpeed="0.00" departDelay="0.00" arrival="208.00" arrivalLane="junction_end2_1" arrivalPos="486.40" arrivalSpeed="16.21" duration="113.00" routeLength="976.73" waitingTime="0.00" waitingCount="0" stopTime="0.00" timeLoss="54.80" rerouteNo="0" devices="tripinfo_flow32c.0 routing_flow32c.0" vType="car1" speedFactor="1.23" vaporized=""/>
    <tripinfo id="flow31b.0" depart="6.00" departLane="end3_junction_0" departPos="1.70" departSpeed="0.00" departDelay="0.00" arrival="211.00" arrivalLane="junction_end1_0" arrivalPos="486.40" arrivalSpeed="5.42" duration="205.00" routeLength="998.30" waitingTime="8.00" waitingCount="1" stopTime="0.00" timeLoss="24.47" rerouteNo="0" devices="tripinfo_flow31b.0 routing_flow31b.0" vType="bike1" speedFactor="1.09" vaporized=""/>
    <tripinfo id="flow14c.2" depart="97.00" departLane="end1_junction_0" departPos="5.10" departSpeed="0.00" departDelay="3.00" arrival="211.00" arrivalLane="junction_end4_1" arrivalPos="486.40" arrivalSpeed="14.56" duration="114.00" routeLength="976.73" waitingTime="0.00" waitingCount="0" stopTime="0.00" timeLoss="47.27" rerouteNo="0" devices="tripinfo_flow14c.2 routing_flow14c.2" vType="car1" speedFactor="1.07" vaporized=""/>
    <tripinfo id="flow43b.2" depart="23.00" departLane="end4_junction_0" departPos="1.70" departSpeed="0.00" departDelay="0.00" arrival="212.00" arrivalLane="junction_end3_0" arrivalPos="486.40" arrivalSpeed="5.07" duration="189.00" routeLength="980.13" waitingTime="0.00" waitingCount="0" stopTime="0.00" timeLoss="12.31" rerouteNo="0" devices="tripinfo_flow43b.2 routing_flow43b.2" vType="bike1" speedFactor="1.02" vaporized=""/>